
                                 *****************
                                 * O   R   C   A *
                                 *****************

                                            #,                                       
                                            ###                                      
                                            ####                                     
                                            #####                                    
                                            ######                                   
                                           ########,                                 
                                     ,,################,,,,,                         
                               ,,#################################,,                 
                          ,,##########################################,,             
                       ,#########################################, ''#####,          
                    ,#############################################,,   '####,        
                  ,##################################################,,,,####,       
                ,###########''''           ''''###############################       
              ,#####''   ,,,,##########,,,,          '''####'''          '####       
            ,##' ,,,,###########################,,,                        '##       
           ' ,,###''''                  '''############,,,                           
         ,,##''                                '''############,,,,        ,,,,,,###''
      ,#''                                            '''#######################'''  
     '                                                          ''''####''''         
             ,#######,   #######,   ,#######,      ##                                
            ,#'     '#,  ##    ##  ,#'     '#,    #''#        ,####,    ,#,          
            ##       ##  ##   ,#'  ##            #'  '#       #'       ,# #          
            ##       ##  #######   ##           ,######,      #####,      #          
            '#,     ,#'  ##    ##  '#,     ,#' ,#      #,     #,   #      #          
             '#######'   ##     ##  '#######'  #'      '#     '####' #    #          



                #########################################################
                #                        -***-                          #
                #          Department of theory and spectroscopy        #
                #                                                       #
                #                      Frank Neese                      #
                #                                                       #
                #     Directorship, Architecture, Infrastructure        #
                #                    SHARK, DRIVERS                     #
                #        Core code/Algorithms in most modules           #
                #                                                       #
                #        Max Planck Institute fuer Kohlenforschung      #
                #                Kaiser Wilhelm Platz 1                 #
                #                 D-45470 Muelheim/Ruhr                 #
                #                      Germany                          #
                #                                                       #
                #                  All rights reserved                  #
                #                        -***-                          #
                #########################################################


                         Program Version 6.1.0  -  RELEASE   -
                                (GIT: $679e74b$)
                          ($2025-06-10 18:02:51 +0200$)


 With contributions from (in alphabetic order):
[Max-Planck-Institut fuer Kohlenforschung]                               
  Daniel Aravena         : Magnetic Suceptibility                        
  Michael Atanasov       : Ab Initio Ligand Field Theory (pilot matlab implementation)
  Alexander A. Auer      : GIAO ZORA, VPT2 properties, NMR spectrum      
  Ute Becker             : All parallelization in ORCA, NUMFREQ, NUMCALC 
  Giovanni Bistoni       : ED, misc. LED, open-shell LED, HFLD           
  Dmytro Bykov           : pre 5.0 version of the SCF Hessian            
  Marcos Casanova-Páez   : Triplet and SCS-CIS(D). UHF-(DLPNO)-IP/EA/STEOM-CCSD. UHF-CVS-IP/STEOM-CCSD   
  Vijay G. Chilkuri      : MRCI spin determinant printing, contributions to CSF-ICE 
  Pauline Colinet        : FMM embedding                                 
  Dipayan Datta          : RHF DLPNO-CCSD density                        
  Achintya Kumar Dutta   : EOM-CC, STEOM-CC                              
  Nicolas Foglia         : Exact transition moments, OPA infrastructure, MCD improvements    
  Dmitry Ganyushin       : Spin-Orbit,Spin-Spin,Magnetic field MRCI      
  Miquel Garcia-Rates    : C-PCM and meta-GGA Hessian, CCSD/C-PCM, Gaussian charge scheme 
  Tiago L. C. Gouveia    : GS-ROHF, GS-ROCIS                             
  Yang Guo               : DLPNO-NEVPT2, F12-NEVPT2, CIM, IAO-localization        
  Andreas Hansen         : Spin unrestricted coupled pair/coupled cluster methods 
  Ingolf Harden          : AUTO-CI MPn and infrastructure                
  Benjamin Helmich-Paris : MC-RPA, TRAH-(SCF,CASSCF), AVAS, COSX integrals, SCF dyn. polar., MC-PDFT, srDFT 
  Lee Huntington         : MR-EOM, pCC                                   
  Robert Izsak           : Overlap fitted RIJCOSX, COSX-SCS-MP3, EOM     
  Riya Kayal             : Wick's Theorem for AUTO-CI, AUTO-CI UHF-CCSDT 
  Emily Kempfer          : AUTO-CI RHF CISDT and CCSDT, approximate NEVPT4
  Christian Kollmar      : KDIIS, OOCD, Brueckner-CCSD(T), CCSD density, CASPT2, CASPT2-K, improved NEVPT2 
  Axel Koslowski         : Symmetry handling                             
  Simone Kossmann        : meta-GGA functionals, TD-DFT gradient, OOMP2, (MP2 Hessian; deprecated post 5.0) 
  Lucas Lang             : DCDCAS, Hyperfine gauge corrections, ICE-SOC+SSC
  Marvin Lechner         : AUTO-CI (C++ implementation), FIC-MRCC        
  Spencer Leger          : CASSCF response                               
  Dagmar Lenk            : GEPOL surface, SMD, ORCA-2-JSON               
  Dimitrios Liakos       : Extrapolation schemes; Compound Job, Property file
  Dimitrios Manganas     : Further ROCIS development; embedding schemes. LFT, Crystal Embedding 
  Dimitrios Pantazis     : SARC Basis sets                               
  Anastasios Papadopoulos: AUTO-CI, single reference methods and gradients 
  Taras Petrenko         : pre 6.0 DFT Hessian and TD-DFT gradient,  ECA, NRVS 
  Petra Pikulova         : Analytic Raman intensities                    
  Peter Pinski           : DLPNO-MP2, DLPNO-MP2 Gradient                 
  Shashank Vittal Rao    : ES-AILFT, MagRelax                            
  Christoph Reimann      : Effective Core Potentials                     
  Marius Retegan         : Local ZFS, SOC                                
  Christoph Riplinger    : Optimizer, TS searches, QM/MM, DLPNO-CCSD(T), (RO)-DLPNO pert. Triples 
  Michael Roemelt        : Original ROCIS implementation, recursive CI coupling coefficients
  Masaaki Saitow         : Open-shell DLPNO-CCSD energy and density      
  Barbara Sandhoefer     : DKH picture change effects                    
  Yorick L. A. Schmerwitz: GMF and freeze-and-release deltaSCF, NEB S-IDPP initial path                    
  Kantharuban Sivalingam : CASSCF convergence/infrastructure, NEVPT2, NEVPT3, NEVPT4(SD), FIC-MRCI and CEPA variants
  Bernardo de Souza      : ESD, SOC TD-DFT                               
  Georgi L. Stoychev     : AutoAux, RI-MP2 NMR, DLPNO-MP2 response, X2C  
  Van Anh Tran           : RI-MP2 g-tensors                              
  Willem Van den Heuvel  : Paramagnetic NMR                              
  Zikuan Wang            : NOTCH, Electric field optimization            
  Frank Wennmohs         : Technical directorship and infrastructure     
  Hang Xu                : AUTO-CI-Response properties                   
                                                                         
[FACCTs GmbH]                                                            
  Markus Bursch, Nicolas Foglia, Miquel Garcia-Rates, Ingolf Harden, Hagen Neugebauer, Anastasios Papadopoulos, 
  Christoph Riplinger, Bernardo de Souza, Georgi L. Stoychev                                                    
                                                                 
  APM, various basis sets, CI-OPT, improved COSX, DLPNO-Multilevel,           
  DOCKER, DRACO, updates on ESD, Fragmentator, GOAT, IRC, LR-CPCM, L-BFGS, MBIS, meta-GGA TD-DFT gradient, ML-optimized integration grids, 
  MM, NACMEs, nearIR, NEB, NEB-TS, NL-DFT gradient (VV10), 2- and 3-layer-ONIOM, interface openCOSMO-RS, QMMM,   
  Crystal-QMMM, RESP, rigid body optimization, SF, symmetry and pop. for TD-DFT, various functionals, SOLVATOR                                   
                                                                         
[Other institutions]                                                     
  V. Asgeirsson          : NEB                                           
  Christoph Bannwarth    : sTDA-DFT, sTD-DFT, PBEh-3c, B97-3c, D3        
  Giovanni Bistoni       : ETS/NOCV, ADLD/ADEX, COVALED                  
  Martin Brehm           : Molecular dynamics                            
  Ronald Cardenas        : ETS/NOCV                                      
  Martina Colucci        : COVALED                                       
  Sebastian Ehlert       : rSCAN, r2SCAN, r2SCAN-3c, D4, dhf basis sets  
  Marvin Friede          : D4 for Fr, Ra, Ac-Lr                          
  Lars Goerigk           : TD-DFT with DH, B97 family of functionals     
  Stefan Grimme          : VdW corrections, initial TS optimization, DFT functionals, gCP, sTDA/sTD-DF 
  Waldemar Hujo          : DFT-NL                                        
  H. Jonsson             : NEB                                           
  Holger Kruse           : gCP                                           
  Marcel Mueller         : wB97X-3c, vDZP basis set                      
  Hagen Neugebauer       : wr2SCAN, Native XTB                           
  Gianluca Regni         : ADLD/ADEX                                     
  Tobias Risthaus        : pre 6.0 range-separated hybrid DFT and stability analysis
  Lukas Wittmann         : regularized MP2, r2SCAN double-hybrids, wr2SCAN        
                                                                         
We gratefully acknowledge several colleagues who have allowed us to      
interface, adapt or use parts of their codes:                            
  Ed Valeev, F. Pavosevic, A. Kumar             : LibInt (2-el integral package), F12 methods 
  Garnet Chan, S. Sharma, J. Yang, R. Olivares  : DMRG                   
  Ulf Ekstrom                                   : XCFun DFT Library      
  Mihaly Kallay                                 : mrcc  (arbitrary order and MRCC methods)
  Frank Weinhold                                : gennbo (NPA and NBO analysis)           
  Simon Mueller                                 : openCOSMO-RS                            
  Christopher J. Cramer and Donald G. Truhlar   : smd solvation model                     
  S Lehtola, MJT Oliveira, MAL Marques          : LibXC Library                           
  Liviu Ungur et al                             : ANISO software                          


 Your calculation uses the libint2 library for the computation of 2-el integrals
 For citations please refer to: http://libint.valeyev.net

 Your ORCA version has been built with support for libXC version: 7.0.0
 For citations please refer to: https://libxc.gitlab.io

 This ORCA versions uses:
   CBLAS   interface :  Fast vector & matrix operations
   LAPACKE interface :  Fast linear algebra routines
   SCALAPACK package :  Parallel linear algebra routines
   Shared memory     :  Shared parallel matrices
   BLAS/LAPACK       :  OpenBLAS 0.3.29  USE64BITINT DYNAMIC_ARCH NO_AFFINITY SkylakeX SINGLE_THREADED
        Core in use  :  SkylakeX
   Copyright (c) 2011-2014, The OpenBLAS Project


  ***********************************
  * Starting time: Thu Nov 13 17:48:36 2025
  * Host name:     glutamate
  * Process ID:    573932
  * Working dir.:  /home/mchrnwsk/prometheozyme
  ***********************************

Your calculation utilizes the semiempirical GFN2-xTB method
Please cite in your paper:
Bannwarth, C.; Ehlert S.; Grimme, S. J. Chem. Theory Comput. 2019, 15, 1652.
   

================================================================================

================================================================================
                                        WARNINGS
                       Please study these warnings very carefully!
================================================================================


WARNING: Geometry Optimization
  ===> : Switching off AutoStart
         For restart on a previous wavefunction, please use MOREAD

WARNING: Found dipole moment calculation with XTB calculation
  ===> : Switching off dipole moment calculation


================================================================================
                                       INPUT FILE
================================================================================
NAME = /home/mchrnwsk/prometheozyme/ingredients/lmo-mandalate/optimised/adduct_left_d/opt.inp
|  1> !XTB2 OPT
|  2> !PAL16
|  3> * xyz -2 1 /home/mchrnwsk/prometheozyme/ingredients/lmo-mandalate/optimised/adduct_left_d/adduct_d.xyz
|  4> C -1.233000 0.289000 -1.157000
|  5> C -1.510000 -1.224000 -1.368000
|  6> C -1.641000 -2.046000 -0.229000
|  7> C -1.622000 -1.841000 -2.626000
|  8> O -7.400000 -1.018000 0.191000
|  9> O -4.253000 0.154000 -2.619000
| 10> C -1.880000 -3.418000 -0.343000
| 11> C -1.856000 -3.215000 -2.744000
| 12> C -1.983000 -4.004000 -1.602000
| 13> O -1.019000 0.929000 -2.300000
| 14> C 1.009000 4.282000 1.294000
| 15> C -0.476000 4.407000 3.879000
| 16> C -4.368000 0.530000 0.895000
| 17> N -5.623000 0.045000 1.126000
| 18> C -6.240000 -0.600000 0.136000
| 19> N -5.543000 -0.780000 -1.036000
| 20> C -4.438000 -0.053000 -1.419000
| 21> C -3.650000 0.506000 -0.269000
| 22> C -1.861000 1.834000 0.668000
| 23> N -2.331000 0.998000 -0.406000
| 24> C -0.708000 2.633000 0.519000
| 25> C -0.227000 3.467000 1.540000
| 26> C -0.928000 3.524000 2.752000
| 27> C -2.097000 2.754000 2.902000
| 28> C -2.588000 1.903000 1.887000
| 29> N -3.776000 1.125000 2.044000
| 30> C -4.407000 1.107000 3.361000
| 31> H -1.597000 -1.583000 0.755000
| 32> H -1.558000 -1.226000 -3.521000
| 33> H -2.010000 -4.011000 0.555000
| 34> H -1.959000 -3.651000 -3.731000
| 35> H -2.187000 -5.064000 -1.693000
| 36> H -6.092000 -1.119000 -1.801000
| 37> H -5.127000 0.292000 3.486000
| 38> H -3.670000 0.939000 4.155000
| 39> H -4.934000 2.049000 3.550000
| 40> H -0.194000 2.613000 -0.440000
| 41> H -2.645000 2.844000 3.833000
| 42> H 0.782000 5.350000 1.372000
| 43> H 1.787000 4.021000 2.019000
| 44> H 1.419000 4.104000 0.295000
| 45> H 0.543000 4.148000 4.182000
| 46> H -0.510000 5.458000 3.575000
| 47> H -1.116000 4.297000 4.761000
| 48> H -0.377000 0.221000 -0.464000
| 49> **                         ****END OF INPUT****
================================================================================

                       *****************************
                       * Geometry Optimization Run *
                       *****************************

Geometry optimization settings:
Update method            Update   .... BFGS
Choice of coordinates    CoordSys .... (2022) Redundant Internals
Initial Hessian          InHess   .... Almloef's Model
Max. no of cycles        MaxIter  .... 135

Convergence Tolerances:
Energy Change            TolE     ....  5.0000e-06 Eh
Max. Gradient            TolMAXG  ....  3.0000e-04 Eh/bohr
RMS Gradient             TolRMSG  ....  1.0000e-04 Eh/bohr
Max. Displacement        TolMAXD  ....  4.0000e-03 bohr
RMS Displacement         TolRMSD  ....  2.0000e-03 bohr
Strict Convergence                .... False

------------------------------------------------------------------------------
                        ORCA OPTIMIZATION COORDINATE SETUP
------------------------------------------------------------------------------

The optimization will be done in redundant internal coordinates (2022)
Making redundant internal coordinates   ...  (2022 redundants) done
Evaluating the initial hessian          ...  (Almloef) done
Evaluating the coordinates              ...  done
Calculating the B-matrix                .... done
Calculating the G-matrix                .... done
The number of degrees of freedom        ....  239

    -----------------------------------------------------------------
                    Redundant Internal Coordinates


    -----------------------------------------------------------------
         Definition                    Initial Value    Approx d2E/dq
    -----------------------------------------------------------------
      1. B(C   1,C   0)                  1.5526         0.343872   
      2. B(C   2,C   1)                  1.4107         0.578977   
      3. B(C   3,C   1)                  1.4056         0.589931   
      4. B(C   6,C   2)                  1.3973         0.608221   
      5. B(C   7,C   3)                  1.3988         0.604989   
      6. B(C   8,C   7)                  1.3938         0.616025   
      7. B(C   8,C   6)                  1.3925         0.619060   
      8. B(O   9,C   0)                  1.3273         0.704429   
      9. B(N  13,C  12)                  1.3651         0.613106   
     10. B(C  14,N  13)                  1.3330         0.690018   
     11. B(C  14,O   4)                  1.2342         0.991700   
     12. B(N  15,C  14)                  1.3754         0.590377   
     13. B(C  16,N  15)                  1.3770         0.586881   
     14. B(C  16,O   5)                  1.2317         1.001014   
     15. B(C  17,C  12)                  1.3678         0.677778   
     16. B(C  17,C  16)                  1.5020         0.414087   
     17. B(N  19,C  18)                  1.4399         0.465892   
     18. B(N  19,C  17)                  1.4144         0.511575   
     19. B(N  19,C   0)                  1.5074         0.363542   
     20. B(C  20,C  18)                  1.4107         0.579094   
     21. B(C  21,C  20)                  1.4033         0.594920   
     22. B(C  21,C  10)                  1.5008         0.415858   
     23. B(C  22,C  21)                  1.4013         0.599428   
     24. B(C  22,C  11)                  1.5014         0.415001   
     25. B(C  23,C  22)                  1.4078         0.585202   
     26. B(C  24,C  23)                  1.4126         0.574967   
     27. B(C  24,C  18)                  1.4210         0.557538   
     28. B(N  25,C  24)                  1.4287         0.485378   
     29. B(N  25,C  12)                  1.4229         0.495861   
     30. B(C  26,N  25)                  1.4605         0.431961   
     31. B(H  27,C   2)                  1.0884         0.362256   
     32. B(H  28,C   3)                  1.0878         0.362999   
     33. B(H  29,C   6)                  1.0840         0.368190   
     34. B(H  30,C   7)                  1.0839         0.368239   
     35. B(H  31,C   8)                  1.0833         0.369099   
     36. B(H  32,N  15)                  1.0008         0.447626   
     37. B(H  33,C  26)                  1.0946         0.354006   
     38. B(H  34,C  26)                  1.0963         0.351888   
     39. B(H  35,C  26)                  1.0958         0.352487   
     40. B(H  36,C  20)                  1.0882         0.362429   
     41. B(H  37,C  23)                  1.0841         0.368057   
     42. B(H  38,C  10)                  1.0946         0.354014   
     43. B(H  39,C  10)                  1.0950         0.353543   
     44. B(H  40,C  10)                  1.0944         0.354282   
     45. B(H  41,C  11)                  1.0942         0.354600   
     46. B(H  42,C  11)                  1.0946         0.354052   
     47. B(H  43,C  11)                  1.0953         0.353191   
     48. B(H  44,C   0)                  1.1035         0.342736   
     49. A(C   1,C   0,H  44)           99.4219         0.317378   
     50. A(N  19,C   0,H  44)          106.3290         0.318369   
     51. A(C   1,C   0,O   9)          112.4339         0.397263   
     52. A(O   9,C   0,N  19)          108.6427         0.398600   
     53. A(C   1,C   0,N  19)          113.3353         0.354399   
     54. A(O   9,C   0,H  44)          116.4522         0.355414   
     55. A(C   0,C   1,C   3)          124.3061         0.387589   
     56. A(C   2,C   1,C   3)          117.3497         0.424959   
     57. A(C   0,C   1,C   2)          118.3380         0.386325   
     58. A(C   1,C   2,H  27)          118.5762         0.349203   
     59. A(C   6,C   2,H  27)          119.8923         0.352121   
     60. A(C   1,C   2,C   6)          121.4753         0.427289   
     61. A(C   7,C   3,H  28)          119.7210         0.351926   
     62. A(C   1,C   3,H  28)          118.9135         0.350430   
     63. A(C   1,C   3,C   7)          121.3326         0.428317   
     64. A(C   2,C   6,H  29)          119.3461         0.353090   
     65. A(C   2,C   6,C   8)          119.9743         0.432453   
     66. A(C   8,C   6,H  29)          120.6591         0.354148   
     67. A(C   8,C   7,H  30)          120.6441         0.353861   
     68. A(C   3,C   7,C   8)          120.1430         0.431658   
     69. A(C   3,C   7,H  30)          119.1985         0.352780   
     70. A(C   6,C   8,H  31)          120.1098         0.354296   
     71. A(C   6,C   8,C   7)          119.7232         0.433446   
     72. A(C   7,C   8,H  31)          120.1474         0.354001   
     73. A(H  38,C  10,H  39)          109.4337         0.289228   
     74. A(C  21,C  10,H  38)          110.3259         0.329171   
     75. A(H  39,C  10,H  40)          107.4233         0.289262   
     76. A(H  38,C  10,H  40)          107.5425         0.289322   
     77. A(C  21,C  10,H  40)          111.7045         0.329212   
     78. A(C  21,C  10,H  39)          110.3146         0.329099   
     79. A(H  41,C  11,H  43)          107.3020         0.289257   
     80. A(C  22,C  11,H  43)          111.6845         0.328933   
     81. A(C  22,C  11,H  41)          110.4276         0.329149   
     82. A(H  41,C  11,H  42)          109.4575         0.289368   
     83. A(H  42,C  11,H  43)          107.5733         0.289187   
     84. A(C  22,C  11,H  42)          110.2961         0.329065   
     85. A(C  17,C  12,N  25)          118.4315         0.420979   
     86. A(N  13,C  12,N  25)          113.2286         0.410858   
     87. A(N  13,C  12,C  17)          128.3399         0.437316   
     88. A(C  12,N  13,C  14)          118.1490         0.435852   
     89. A(N  13,C  14,N  15)          117.4915         0.432899   
     90. A(O   4,C  14,N  15)          118.0292         0.462322   
     91. A(O   4,C  14,N  13)          124.4588         0.475735   
     92. A(C  14,N  15,C  16)          125.0679         0.420525   
     93. A(C  16,N  15,H  32)          113.9807         0.357390   
     94. A(C  14,N  15,H  32)          114.6889         0.357751   
     95. A(O   5,C  16,N  15)          118.7003         0.462610   
     96. A(N  15,C  16,C  17)          113.8617         0.397490   
     97. A(O   5,C  16,C  17)          127.2005         0.437118   
     98. A(C  16,C  17,N  19)          122.9937         0.388049   
     99. A(C  12,C  17,N  19)          124.4594         0.423331   
    100. A(C  12,C  17,C  16)          112.5007         0.410354   
    101. A(N  19,C  18,C  20)          121.1217         0.404875   
    102. A(C  20,C  18,C  24)          118.7680         0.420707   
    103. A(N  19,C  18,C  24)          120.0698         0.402174   
    104. A(C  17,N  19,C  18)          115.7284         0.393607   
    105. A(C   0,N  19,C  18)          114.0120         0.370944   
    106. A(C   0,N  19,C  17)          124.3266         0.376976   
    107. A(C  18,C  20,C  21)          122.6773         0.425615   
    108. A(C  21,C  20,H  36)          119.3522         0.350836   
    109. A(C  18,C  20,H  36)          117.9509         0.349243   
    110. A(C  20,C  21,C  22)          118.8151         0.428255   
    111. A(C  10,C  21,C  22)          122.1183         0.401844   
    112. A(C  10,C  21,C  20)          119.0616         0.401310   
    113. A(C  21,C  22,C  23)          119.0321         0.426993   
    114. A(C  11,C  22,C  23)          119.4511         0.400003   
    115. A(C  11,C  22,C  21)          121.5046         0.401698   
    116. A(C  22,C  23,C  24)          122.7894         0.423821   
    117. A(C  24,C  23,H  37)          119.4317         0.349730   
    118. A(C  22,C  23,H  37)          117.7655         0.350773   
    119. A(C  23,C  24,N  25)          122.5545         0.407302   
    120. A(C  18,C  24,N  25)          119.5533         0.405092   
    121. A(C  18,C  24,C  23)          117.8920         0.420171   
    122. A(C  24,N  25,C  26)          117.7140         0.384897   
    123. A(C  12,N  25,C  26)          122.9061         0.386331   
    124. A(C  12,N  25,C  24)          119.0068         0.394282   
    125. A(H  34,C  26,H  35)          109.2765         0.288820   
    126. A(H  33,C  26,H  35)          107.6984         0.289091   
    127. A(N  25,C  26,H  35)          110.6537         0.329017   
    128. A(H  33,C  26,H  34)          104.2045         0.289014   
    129. A(N  25,C  26,H  34)          111.3799         0.328925   
    130. A(N  25,C  26,H  33)          113.3491         0.329251   
    131. D(C   2,C   1,C   0,O   9)    174.6628         0.010000   
    132. D(C   2,C   1,C   0,N  19)    -61.6433         0.010000   
    133. D(C   2,C   1,C   0,H  44)     50.8126         0.010000   
    134. D(C   3,C   1,C   0,O   9)     -4.4058         0.010000   
    135. D(C   3,C   1,C   0,N  19)    119.2880         0.010000   
    136. D(H  27,C   2,C   1,C   0)      3.2493         0.023027   
    137. D(C   6,C   2,C   1,C   3)     -0.3466         0.023027   
    138. D(C   6,C   2,C   1,C   0)   -179.4804         0.023027   
    139. D(H  27,C   2,C   1,C   3)   -177.6168         0.023027   
    140. D(H  28,C   3,C   1,C   2)    177.9980         0.023949   
    141. D(C   7,C   3,C   1,C   0)    179.1692         0.023949   
    142. D(H  28,C   3,C   1,C   0)     -2.9249         0.023949   
    143. D(C   7,C   3,C   1,C   2)      0.0921         0.023949   
    144. D(C   8,C   6,C   2,H  27)    177.7638         0.025541   
    145. D(C   8,C   6,C   2,C   1)      0.5289         0.025541   
    146. D(H  29,C   6,C   2,H  27)     -0.5979         0.025541   
    147. D(H  29,C   6,C   2,C   1)   -177.8328         0.025541   
    148. D(H  30,C   7,C   3,C   1)    178.6093         0.025255   
    149. D(C   8,C   7,C   3,H  28)   -177.9090         0.025255   
    150. D(H  30,C   7,C   3,H  28)      0.7201         0.025255   
    151. D(C   8,C   7,C   3,C   1)     -0.0198         0.025255   
    152. D(H  31,C   8,C   7,C   3)    178.5842         0.026239   
    153. D(C   6,C   8,C   7,C   3)      0.1945         0.026239   
    154. D(C   6,C   8,C   7,H  30)   -178.4146         0.026239   
    155. D(H  31,C   8,C   6,H  29)     -0.4947         0.026514   
    156. D(H  31,C   8,C   6,C   2)   -178.8345         0.026514   
    157. D(H  31,C   8,C   7,H  30)     -0.0248         0.026239   
    158. D(C   7,C   8,C   6,H  29)    177.8957         0.026514   
    159. D(C   7,C   8,C   6,C   2)     -0.4442         0.026514   
    160. D(C  14,N  13,C  12,N  25)   -176.3202         0.027535   
    161. D(C  14,N  13,C  12,C  17)      3.6286         0.027535   
    162. D(N  15,C  14,N  13,C  12)      2.6298         0.035558   
    163. D(O   4,C  14,N  13,C  12)   -175.6860         0.035558   
    164. D(H  32,N  15,C  14,O   4)      8.8283         0.028022   
    165. D(C  16,N  15,C  14,N  13)    -19.2283         0.028022   
    166. D(C  16,N  15,C  14,O   4)    159.1985         0.028022   
    167. D(H  32,N  15,C  14,N  13)   -169.5985         0.028022   
    168. D(C  17,C  16,N  15,H  32)    177.4244         0.027668   
    169. D(C  17,C  16,N  15,C  14)     26.8727         0.027668   
    170. D(O   5,C  16,N  15,H  32)      2.6192         0.027668   
    171. D(O   5,C  16,N  15,C  14)   -147.9325         0.027668   
    172. D(N  19,C  17,C  16,N  15)    164.3503         0.011749   
    173. D(N  19,C  17,C  16,O   5)    -21.3719         0.011749   
    174. D(C  12,C  17,C  16,N  15)    -18.0235         0.011749   
    175. D(C  12,C  17,C  16,O   5)    156.2543         0.011749   
    176. D(N  19,C  17,C  12,N  25)      2.0598         0.032185   
    177. D(N  19,C  17,C  12,N  13)   -177.8867         0.032185   
    178. D(C  16,C  17,C  12,N  25)   -175.5255         0.032185   
    179. D(C  16,C  17,C  12,N  13)      4.5280         0.032185   
    180. D(C  17,N  19,C  18,C  24)     12.6130         0.017105   
    181. D(C  17,N  19,C  18,C  20)   -165.0430         0.017105   
    182. D(C   0,N  19,C  18,C  24)   -141.5368         0.017105   
    183. D(C  18,N  19,C  17,C  16)    162.8659         0.020722   
    184. D(C  18,N  19,C  17,C  12)    -14.4741         0.020722   
    185. D(C   0,N  19,C  17,C  16)    -45.9686         0.020722   
    186. D(C   0,N  19,C  17,C  12)    136.6914         0.020722   
    187. D(C  18,N  19,C   0,O   9)   -101.9793         0.011360   
    188. D(C   0,N  19,C  18,C  20)     40.8072         0.017105   
    189. D(C  18,N  19,C   0,C   1)    132.2766         0.011360   
    190. D(C  17,N  19,C   0,H  44)   -127.5129         0.011360   
    191. D(C  17,N  19,C   0,O   9)    106.4211         0.011360   
    192. D(C  17,N  19,C   0,C   1)    -19.3230         0.011360   
    193. D(C  21,C  20,C  18,N  19)    179.5046         0.023036   
    194. D(H  36,C  20,C  18,C  24)   -176.5552         0.023036   
    195. D(H  36,C  20,C  18,N  19)      1.1307         0.023036   
    196. D(C  21,C  20,C  18,C  24)      1.8188         0.023036   
    197. D(C  22,C  21,C  20,C  18)     -0.8539         0.024377   
    198. D(C  10,C  21,C  20,H  36)     -1.7015         0.024377   
    199. D(C  10,C  21,C  20,C  18)    179.9464         0.024377   
    200. D(C  22,C  21,C  10,H  39)     60.4172         0.012796   
    201. D(C  22,C  21,C  10,H  38)    -60.6119         0.012796   
    202. D(C  20,C  21,C  10,H  40)     -1.0041         0.012796   
    203. D(C  20,C  21,C  10,H  39)   -120.4108         0.012796   
    204. D(C  22,C  21,C  20,H  36)    177.4981         0.024377   
    205. D(C  20,C  21,C  10,H  38)    118.5601         0.012796   
    206. D(C  23,C  22,C  21,C  20)     -0.5890         0.024768   
    207. D(C  23,C  22,C  21,C  10)    178.5850         0.024768   
    208. D(C  11,C  22,C  21,C  20)   -179.3146         0.024768   
    209. D(C  11,C  22,C  21,C  10)     -0.1406         0.024768   
    210. D(C  23,C  22,C  11,H  42)   -116.0296         0.012745   
    211. D(C  23,C  22,C  11,H  41)    122.8569         0.012745   
    212. D(C  21,C  22,C  11,H  43)   -177.7392         0.012745   
    213. D(C  21,C  22,C  11,H  42)     62.6908         0.012745   
    214. D(C  21,C  22,C  11,H  41)    -58.4227         0.012745   
    215. D(H  37,C  23,C  22,C  21)   -177.5894         0.023548   
    216. D(H  37,C  23,C  22,C  11)      1.1628         0.023548   
    217. D(C  24,C  23,C  22,C  21)      1.0719         0.023548   
    218. D(C  24,C  23,C  22,C  11)    179.8241         0.023548   
    219. D(N  25,C  24,C  23,H  37)     -1.2782         0.022695   
    220. D(N  25,C  24,C  23,C  22)   -179.9182         0.022695   
    221. D(C  18,C  24,C  23,H  37)    178.5342         0.022695   
    222. D(C  18,C  24,C  23,C  22)     -0.1058         0.022695   
    223. D(N  25,C  24,C  18,C  20)    178.5200         0.021286   
    224. D(N  25,C  24,C  18,N  19)      0.8091         0.021286   
    225. D(C  23,C  24,C  18,C  20)     -1.2982         0.021286   
    226. D(C  23,C  24,C  18,N  19)   -179.0091         0.021286   
    227. D(C  26,N  25,C  24,C  23)     -7.0220         0.018594   
    228. D(C  26,N  25,C  24,C  18)    173.1686         0.018594   
    229. D(C  12,N  25,C  24,C  23)    166.1723         0.018594   
    230. D(C  12,N  25,C  24,C  18)    -13.6371         0.018594   
    231. D(C  26,N  25,C  12,C  17)   -174.8335         0.019429   
    232. D(C  26,N  25,C  12,N  13)      5.1208         0.019429   
    233. D(C  24,N  25,C  12,C  17)     12.3447         0.019429   
    234. D(C  24,N  25,C  12,N  13)   -167.7010         0.019429   
    235. D(H  35,C  26,N  25,C  12)    -97.8301         0.015908   
    236. D(H  34,C  26,N  25,C  24)    -46.6866         0.015908   
    237. D(H  34,C  26,N  25,C  12)    140.4043         0.015908   
    238. D(H  33,C  26,N  25,C  24)   -163.8174         0.015908   
    239. D(H  33,C  26,N  25,C  12)     23.2735         0.015908   
    -----------------------------------------------------------------

Number of atoms                         .... 45
Number of degrees of freedom            .... 239


         *************************************************************
         *                GEOMETRY OPTIMIZATION CYCLE   1            *
         *************************************************************
---------------------------------
CARTESIAN COORDINATES (ANGSTROEM)
---------------------------------
  C    -1.233000    0.289000   -1.157000
  C    -1.510000   -1.224000   -1.368000
  C    -1.641000   -2.046000   -0.229000
  C    -1.622000   -1.841000   -2.626000
  O    -7.400000   -1.018000    0.191000
  O    -4.253000    0.154000   -2.619000
  C    -1.880000   -3.418000   -0.343000
  C    -1.856000   -3.215000   -2.744000
  C    -1.983000   -4.004000   -1.602000
  O    -1.019000    0.929000   -2.300000
  C     1.009000    4.282000    1.294000
  C    -0.476000    4.407000    3.879000
  C    -4.368000    0.530000    0.895000
  N    -5.623000    0.045000    1.126000
  C    -6.240000   -0.600000    0.136000
  N    -5.543000   -0.780000   -1.036000
  C    -4.438000   -0.053000   -1.419000
  C    -3.650000    0.506000   -0.269000
  C    -1.861000    1.834000    0.668000
  N    -2.331000    0.998000   -0.406000
  C    -0.708000    2.633000    0.519000
  C    -0.227000    3.467000    1.540000
  C    -0.928000    3.524000    2.752000
  C    -2.097000    2.754000    2.902000
  C    -2.588000    1.903000    1.887000
  N    -3.776000    1.125000    2.044000
  C    -4.407000    1.107000    3.361000
  H    -1.597000   -1.583000    0.755000
  H    -1.558000   -1.226000   -3.521000
  H    -2.010000   -4.011000    0.555000
  H    -1.959000   -3.651000   -3.731000
  H    -2.187000   -5.064000   -1.693000
  H    -6.092000   -1.119000   -1.801000
  H    -5.127000    0.292000    3.486000
  H    -3.670000    0.939000    4.155000
  H    -4.934000    2.049000    3.550000
  H    -0.194000    2.613000   -0.440000
  H    -2.645000    2.844000    3.833000
  H     0.782000    5.350000    1.372000
  H     1.787000    4.021000    2.019000
  H     1.419000    4.104000    0.295000
  H     0.543000    4.148000    4.182000
  H    -0.510000    5.458000    3.575000
  H    -1.116000    4.297000    4.761000
  H    -0.377000    0.221000   -0.464000

----------------------------
CARTESIAN COORDINATES (A.U.)
----------------------------
  NO LB    ZA    FRAG    MASS        X           Y           Z
   0 C   6.0000    0    12.011   -2.330032    0.546131   -2.186413
   1 C   6.0000    0    12.011   -2.853486   -2.313025   -2.585145
   2 C   6.0000    0    12.011   -3.101041   -3.866380   -0.432747
   3 C   6.0000    0    12.011   -3.065136   -3.478986   -4.962421
   4 O   8.0000    0    15.999  -13.983973   -1.923741    0.360938
   5 O   8.0000    0    15.999   -8.037005    0.291018   -4.949193
   6 C   6.0000    0    12.011   -3.552685   -6.459084   -0.648176
   7 C   6.0000    0    12.011   -3.507332   -6.075470   -5.185409
   8 C   6.0000    0    12.011   -3.747327   -7.566463   -3.027341
   9 O   8.0000    0    15.999   -1.925631    1.755556   -4.346370
  10 C   6.0000    0    12.011    1.906734    8.091807    2.445306
  11 C   6.0000    0    12.011   -0.899510    8.328023    7.330248
  12 C   6.0000    0    12.011   -8.254324    1.001555    1.691305
  13 N   7.0000    0    14.007  -10.625930    0.085038    2.127832
  14 C   6.0000    0    12.011  -11.791891   -1.133836    0.257003
  15 N   7.0000    0    14.007  -10.474752   -1.473986   -1.957756
  16 C   6.0000    0    12.011   -8.386605   -0.100155   -2.681521
  17 C   6.0000    0    12.011   -6.897500    0.956201   -0.508336
  18 C   6.0000    0    12.011   -3.516780    3.465758    1.262337
  19 N   7.0000    0    14.007   -4.404952    1.885947   -0.767229
  20 C   6.0000    0    12.011   -1.337926    4.975649    0.980768
  21 C   6.0000    0    12.011   -0.428968    6.551681    2.910178
  22 C   6.0000    0    12.011   -1.753666    6.659395    5.200526
  23 C   6.0000    0    12.011   -3.962756    5.204306    5.483985
  24 C   6.0000    0    12.011   -4.890611    3.596149    3.565913
  25 N   7.0000    0    14.007   -7.135606    2.125942    3.862600
  26 C   6.0000    0    12.011   -8.328023    2.091927    6.351370
  27 H   1.0000    0     1.008   -3.017893   -2.991436    1.426743
  28 H   1.0000    0     1.008   -2.944193   -2.316804   -6.653726
  29 H   1.0000    0     1.008   -3.798350   -7.579692    1.048798
  30 H   1.0000    0     1.008   -3.701973   -6.899390   -7.050568
  31 H   1.0000    0     1.008   -4.132831   -9.569573   -3.199306
  32 H   1.0000    0     1.008  -11.512212   -2.114604   -3.403397
  33 H   1.0000    0     1.008   -9.688626    0.551800    6.587585
  34 H   1.0000    0     1.008   -6.935295    1.774453    7.851812
  35 H   1.0000    0     1.008   -9.323909    3.872049    6.708528
  36 H   1.0000    0     1.008   -0.366607    4.937854   -0.831479
  37 H   1.0000    0     1.008   -4.998326    5.374381    7.243320
  38 H   1.0000    0     1.008    1.477766   10.110035    2.592704
  39 H   1.0000    0     1.008    3.376941    7.598589    3.815357
  40 H   1.0000    0     1.008    2.681521    7.755436    0.557469
  41 H   1.0000    0     1.008    1.026121    7.838584    7.902835
  42 H   1.0000    0     1.008   -0.963760   10.314125    6.755771
  43 H   1.0000    0     1.008   -2.108934    8.120153    8.996986
  44 H   1.0000    0     1.008   -0.712427    0.417629   -0.876833

      -----------------------------------------------------------      
     |                   =====================                   |     
     |                           x T B                           |     
     |                   =====================                   |     
     |                         S. Grimme                         |     
     |          Mulliken Center for Theoretical Chemistry        |     
     |                    University of Bonn                     |     
      -----------------------------------------------------------      

   * xtb version 6.7.1 (edcfbbe) compiled by 'albert@albert-system' on 2024-07-22

   xtb is free software: you can redistribute it and/or modify it under
   the terms of the GNU Lesser General Public License as published by
   the Free Software Foundation, either version 3 of the License, or
   (at your option) any later version.
   
   xtb is distributed in the hope that it will be useful,
   but WITHOUT ANY WARRANTY; without even the implied warranty of
   MERCHANTABILITY or FITNESS FOR A PARTICULAR PURPOSE.  See the
   GNU Lesser General Public License for more details.
   
   Cite this work as:
   * C. Bannwarth, E. Caldeweyher, S. Ehlert, A. Hansen, P. Pracht,
     J. Seibert, S. Spicher, S. Grimme, WIREs Comput. Mol. Sci., 2020, 11,
     e01493. DOI: 10.1002/wcms.1493
   
   for GFN2-xTB:
   * C. Bannwarth, S. Ehlert and S. Grimme., J. Chem. Theory Comput., 2019,
     15, 1652-1671. DOI: 10.1021/acs.jctc.8b01176
   for GFN1-xTB:
   * S. Grimme, C. Bannwarth, P. Shushkov, J. Chem. Theory Comput., 2017,
     13, 1989-2009. DOI: 10.1021/acs.jctc.7b00118
   for GFN0-xTB:
   * P. Pracht, E. Caldeweyher, S. Ehlert, S. Grimme, ChemRxiv, 2019, preprint.
     DOI: 10.26434/chemrxiv.8326202.v1
   for GFN-FF:
   * S. Spicher and S. Grimme, Angew. Chem. Int. Ed., 2020, 59, 15665-15673.
     DOI: 10.1002/anie.202004239
   
   for ALPB and GBSA implicit solvation:
   * S. Ehlert, M. Stahn, S. Spicher, S. Grimme, J. Chem. Theory Comput.,
     2021, 17, 4250-4261. DOI: 10.1021/acs.jctc.1c00471
   
   for ddCOSMO and CPCM-X implicit solvation:
   * M. Stahn, S. Ehlert, S. Grimme, J. Phys. Chem. A,
     2023, XX, XXXX-XXXX. DOI: 10.1021/acs.jpca.3c04382
   
   for DFT-D4:
   * E. Caldeweyher, C. Bannwarth and S. Grimme, J. Chem. Phys., 2017,
     147, 034112. DOI: 10.1063/1.4993215
   * E. Caldeweyher, S. Ehlert, A. Hansen, H. Neugebauer, S. Spicher,
     C. Bannwarth and S. Grimme, J. Chem. Phys., 2019, 150, 154122.
     DOI: 10.1063/1.5090222
   * E. Caldeweyher, J.-M. Mewes, S. Ehlert and S. Grimme, Phys. Chem. Chem. Phys.
     2020, 22, 8499-8512. DOI: 10.1039/D0CP00502A
   
   for sTDA-xTB:
   * S. Grimme and C. Bannwarth, J. Chem. Phys., 2016, 145, 054103.
     DOI: 10.1063/1.4959605
   
   in the mass-spec context:
   * V. Asgeirsson, C. Bauer and S. Grimme, Chem. Sci., 2017, 8, 4879.
     DOI: 10.1039/c7sc00601b
   * J. Koopman and S. Grimme, ACS Omega 2019, 4, 12, 15120-15133.
     DOI: 10.1021/acsomega.9b02011
   
   for metadynamics refer to:
   * S. Grimme, J. Chem. Theory Comput., 2019, 155, 2847-2862
     DOI: 10.1021/acs.jctc.9b00143
   
   for SPH calculations refer to:
   * S. Spicher and S. Grimme, J. Chem. Theory Comput., 2021, 17, 1701-1714
     DOI: 10.1021/acs.jctc.0c01306
   
   for ONIOM refer to:
   * C. Plett, A. Katbashev, S. Ehlert, S. Grimme, M. Bursch,
     Phys. Chem. Chem. Phys., 2023, 25, 17860-17868. DOI: 10.1039/D3CP02178E
   
   for DIPRO refer to:
   * J. Kohn, N. Gildemeister, S. Grimme, D. Fazzi, A. Hansen,
     J. Chem. Phys., 2023, just accepted.
   
   for PTB refer to:
   * S. Grimme, M. Mueller, A. Hansen, J. Chem. Phys., 2023, 158, 124111.
     DOI: 10.1063/5.0137838
   
   with help from (in alphabetical order)
   P. Atkinson, C. Bannwarth, F. Bohle, G. Brandenburg, E. Caldeweyher
   M. Checinski, S. Dohm, S. Ehlert, S. Ehrlich, I. Gerasimov, C. Hölzer
   A. Katbashev, J. Kohn, J. Koopman, C. Lavigne, S. Lehtola, F. März, M. Müller,
   F. Musil, H. Neugebauer, J. Pisarek, C. Plett, P. Pracht, F. Pultar,
   J. Seibert, P. Shushkov, S. Spicher, M. Stahn, M. Steiner, T. Strunk,
   J. Stückrath, T. Rose, and J. Unsleber
   
 * started run on 2025/11/13 at 17:48:37.364     
   ID    Z sym.   atoms
    1    6 C      1-4, 7-9, 11-13, 15, 17-19, 21-25, 27
    2    8 O      5, 6, 10
    3    7 N      14, 16, 20, 26
    4    1 H      28-45

           -------------------------------------------------
          |                Calculation Setup                |
           -------------------------------------------------

          program call               : /home/mchrnwsk/orca_6_1_0/otool_xtb /home/mchrnwsk/prometheozyme/ingredients/lmo-mandalate/optimised/adduct_left_d/opt_XTB.xyz --grad -c -2 -u 0 -P 16 --namespace /home/mchrnwsk/prometheozyme/ingredients/lmo-mandalate/optimised/adduct_left_d/opt --input /home/mchrnwsk/prometheozyme/ingredients/lmo-mandalate/optimised/adduct_left_d/opt_XTB.input.tmp --acc 0.200000
          calculation namespace      : /home/mchrnwsk/prometheozyme/ingredients/lmo-mandalate/optimised/adduct_left_d/opt
          coordinate file            : /home/mchrnwsk/prometheozyme/ingredients/lmo-mandalate/optimised/adduct_left_d/opt_XTB.xyz
          omp threads                :                    16


           -------------------------------------------------
          |                 G F N 2 - x T B                 |
           -------------------------------------------------

        Reference                      10.1021/acs.jctc.8b01176
      * Hamiltonian:
        H0-scaling (s, p, d)           1.850000    2.230000    2.230000
        zeta-weighting                 0.500000
      * Dispersion:
        s8                             2.700000
        a1                             0.520000
        a2                             5.000000
        s9                             5.000000
      * Repulsion:
        kExp                           1.500000    1.000000
        rExp                           1.000000
      * Coulomb:
        alpha                          2.000000
        third order                    shell-resolved
        anisotropic                    true
        a3                             3.000000
        a5                             4.000000
        cn-shift                       1.200000
        cn-exp                         4.000000
        max-rad                        5.000000


          ...................................................
          :                      SETUP                      :
          :.................................................:
          :  # basis functions                 126          :
          :  # atomic orbitals                 126          :
          :  # shells                           72          :
          :  # electrons                       138          :
          :  max. iterations                   250          :
          :  Hamiltonian                  GFN2-xTB          :
          :  restarted?                      false          :
          :  GBSA solvation                  false          :
          :  PC potential                    false          :
          :  electronic temp.          300.0000000     K    :
          :  accuracy                    0.2000000          :
          :  -> integral cutoff          0.3198970E+02      :
          :  -> integral neglect         0.2000000E-08      :
          :  -> SCF convergence          0.2000000E-06 Eh   :
          :  -> wf. convergence          0.2000000E-04 e    :
          :  Broyden damping             0.4000000          :
          :  net charge                         -2          :
          :  unpaired electrons                  0          :
          ...................................................

 iter      E             dE          RMSdq      gap      omega  full diag
   1    -77.0525440 -0.770525E+02  0.450E+00    2.15       0.0  T
   2    -77.2555539 -0.203010E+00  0.253E+00    1.42       1.0  T
   3    -77.2436525  0.119014E-01  0.145E+00    1.05       1.0  T
   4    -77.2687341 -0.250816E-01  0.715E-01    0.61       1.0  T
   5    -77.2899524 -0.212183E-01  0.241E-01    0.98       1.0  T
   6    -77.2919449 -0.199241E-02  0.758E-02    0.98       1.0  T
   7    -77.2920615 -0.116675E-03  0.409E-02    0.95       1.0  T
   8    -77.2920711 -0.953252E-05  0.198E-02    0.96       1.0  T
   9    -77.2920845 -0.133993E-04  0.490E-03    0.96       3.0  T
  10    -77.2920849 -0.423518E-06  0.262E-03    0.96       5.7  T
  11    -77.2920849 -0.389721E-07  0.963E-04    0.96      15.5  T
  12    -77.2920849 -0.239793E-07  0.338E-04    0.96      44.1  T
  13    -77.2920849 -0.171539E-08  0.142E-04    0.96     105.2  T
  14    -77.2920849 -0.197488E-09  0.586E-05    0.96     254.2  T

   *** convergence criteria satisfied after 14 iterations ***

         #    Occupation            Energy/Eh            Energy/eV
      -------------------------------------------------------------
         1        2.0000           -0.4345360             -11.8243
       ...           ...                  ...                  ...
        63        2.0000           -0.1451626              -3.9501
        64        2.0000           -0.1296602              -3.5282
        65        2.0000           -0.1217006              -3.3116
        66        2.0000           -0.1191246              -3.2415
        67        2.0000           -0.0650175              -1.7692
        68        2.0000           -0.0477243              -1.2986
        69        2.0000           -0.0411755              -1.1204 (HOMO)
        70                         -0.0058312              -0.1587 (LUMO)
        71                         -0.0026750              -0.0728
        72                          0.0022624               0.0616
        73                          0.0095082               0.2587
        74                          0.0382995               1.0422
       ...                                ...                  ...
       126                          0.9209068              25.0591
      -------------------------------------------------------------
                  HL-Gap            0.0353443 Eh            0.9618 eV
             Fermi-level           -0.0235198 Eh           -0.6400 eV

 SCC (total)                   0 d,  0 h,  0 min,  0.053 sec
 SCC setup                      ...        0 min,  0.001 sec (  0.973%)
 Dispersion                     ...        0 min,  0.001 sec (  2.071%)
 classical contributions        ...        0 min,  0.000 sec (  0.097%)
 integral evaluation            ...        0 min,  0.004 sec (  8.104%)
 iterations                     ...        0 min,  0.043 sec ( 80.551%)
 molecular gradient             ...        0 min,  0.004 sec (  7.751%)
 printout                       ...        0 min,  0.000 sec (  0.386%)

         :::::::::::::::::::::::::::::::::::::::::::::::::::::
         ::                     SUMMARY                     ::
         :::::::::::::::::::::::::::::::::::::::::::::::::::::
         :: total energy             -76.287112525170 Eh    ::
         :: gradient norm              0.133621676041 Eh/a0 ::
         :: HOMO-LUMO gap              0.961767798843 eV    ::
         ::.................................................::
         :: SCC energy               -77.291272074308 Eh    ::
         :: -> isotropic ES            0.457627894087 Eh    ::
         :: -> anisotropic ES          0.023198996062 Eh    ::
         :: -> anisotropic XC          0.021661953787 Eh    ::
         :: -> dispersion             -0.059927429826 Eh    ::
         :: repulsion energy           1.004159549138 Eh    ::
         :: add. restraining           0.000000000000 Eh    ::
         :: total charge              -2.000000000589 e     ::
         :::::::::::::::::::::::::::::::::::::::::::::::::::::


Property printout bound to 'properties.out'

           -------------------------------------------------
          | TOTAL ENERGY              -76.287112525170 Eh   |
          | GRADIENT NORM               0.133621676041 Eh/α |
          | HOMO-LUMO GAP               0.961767798843 eV   |
           -------------------------------------------------

------------------------------------------------------------------------
 * finished run on 2025/11/13 at 17:48:37.437     
------------------------------------------------------------------------
 total:
 * wall-time:     0 d,  0 h,  0 min,  0.073 sec
 *  cpu-time:     0 d,  0 h,  0 min,  1.077 sec
 * ratio c/w:    14.758 speedup
 SCF:
 * wall-time:     0 d,  0 h,  0 min,  0.054 sec
 *  cpu-time:     0 d,  0 h,  0 min,  0.850 sec
 * ratio c/w:    15.879 speedup


-------------------------   --------------------
FINAL SINGLE POINT ENERGY       -76.287112525170
-------------------------   --------------------


-------------
DIPOLE MOMENT
-------------
                                X             Y             Z
Total Dipole Moment    :     12.91200      -1.41000       3.03200
                        -----------------------------------------
Magnitude (a.u.)       :     13.33795
Magnitude (Debye)      :     33.90237


------------------
CARTESIAN GRADIENT
------------------

   1   C   :    0.008477686   -0.010543507    0.067518083
   2   C   :    0.018488860    0.017617070   -0.009259170
   3   C   :    0.002271784    0.002430296    0.011865080
   4   C   :    0.000617370    0.000152030   -0.006995706
   5   O   :    0.007557057    0.006070221   -0.003596241
   6   O   :   -0.002089814    0.007281886   -0.005634139
   7   C   :   -0.002360463   -0.012950870    0.005313298
   8   C   :   -0.003075583   -0.011782243   -0.011233887
   9   C   :   -0.000879848   -0.007553096    0.001140600
  10   O   :   -0.014456648    0.013680509   -0.023601239
  11   C   :   -0.002636900   -0.000855938    0.000873678
  12   C   :    0.000669907   -0.000032973   -0.003046811
  13   C   :    0.006225265    0.004518309   -0.023103608
  14   N   :   -0.013468700   -0.005735072    0.005127108
  15   C   :    0.001265721   -0.008950899   -0.020755206
  16   N   :   -0.010434139   -0.004028629    0.005471228
  17   C   :   -0.027106201   -0.025461000   -0.006715802
  18   C   :    0.016538978    0.021022729    0.025011459
  19   C   :    0.014580724    0.014894167    0.022970775
  20   N   :   -0.005913067   -0.018769273   -0.048706246
  21   C   :    0.007233366    0.004614433   -0.001448851
  22   C   :    0.012450390    0.010326153    0.000826837
  23   C   :    0.002862213    0.007056317    0.010533840
  24   C   :    0.005871381    0.008683744    0.014022518
  25   C   :    0.007734039   -0.001396463   -0.005933517
  26   N   :   -0.018011332   -0.008644384   -0.010672083
  27   C   :    0.000029751    0.003267891    0.007864739
  28   H   :   -0.000544696    0.002349575    0.002660772
  29   H   :   -0.000207523   -0.000479412   -0.007208765
  30   H   :   -0.000194337    0.001274634    0.000635025
  31   H   :   -0.000143564    0.001195268   -0.000852149
  32   H   :   -0.000037000    0.001433006   -0.000093181
  33   H   :    0.005635488    0.004942102    0.009316518
  34   H   :   -0.000526297   -0.002200765    0.013738890
  35   H   :   -0.004499684   -0.003763581    0.003787661
  36   H   :   -0.000028069   -0.000744122   -0.001378901
  37   H   :    0.004261505    0.002243653   -0.004998644
  38   H   :   -0.002073139    0.000380453    0.001427871
  39   H   :   -0.002404621    0.000928928   -0.002201178
  40   H   :    0.000606283   -0.003416047   -0.000221116
  41   H   :    0.003841526    0.001229688   -0.003008570
  42   H   :   -0.000148004   -0.003358265    0.000846307
  43   H   :   -0.003068068    0.000856375   -0.001287615
  44   H   :   -0.000439112    0.000715939    0.003487439
  45   H   :   -0.012472485   -0.008498843   -0.012487101

Difference to translation invariance:
           :    0.0000000000   -0.0000000000   -0.0000000000

Difference to rotation invariance:
           :    0.0000001473   -0.0000001857    0.0000000152

Norm of the Cartesian gradient     ...    0.1336216760
RMS gradient                       ...    0.0115003228
MAX gradient                       ...    0.0675180826
------------------------------------------------------------------------------
                         ORCA GEOMETRY RELAXATION STEP
------------------------------------------------------------------------------

Reading the OPT-File                    .... done
Getting information on internals        .... done
Copying old internal coords+grads       .... done
Making the new internal coordinates     .... (2022 redundants) done
Validating the new internal coordinates .... (2022 redundants) done
Calculating the B-matrix                .... done
Calculating the G,G- and P matrices     .... done
Transforming gradient to internals      .... done
Projecting the internal gradient        .... done
Number of atoms                         ....  45
Number of internal coordinates          .... 239
Current Energy                          ....   -76.287112525 Eh
Current gradient norm                   ....     0.133621676 Eh/bohr
Maximum allowed component of the step   ....  0.300
Current trust radius                    ....  0.300
Evaluating the initial hessian          ....  (Almloef) done
Projecting the Hessian                  .... done
Forming the augmented Hessian           .... done
Diagonalizing the augmented Hessian     .... done
Last element of RFO vector              ....  0.939206440
Lowest eigenvalues of augmented Hessian:
 -0.034003832  0.010000096  0.012287572  0.012745156  0.012795955
Length of the computed step             ....  0.365577745
Warning: the length of the step is outside the trust region - taking restricted step instead
The input lambda is                     ....     0.009000
   iter:   5  x=   -0.010684  g=   58.442616 f(x)=     0.473456
   iter:  10  x=   -0.059903  g=    1.036221 f(x)=     0.000833
The output lambda is                    ....    -0.059913 (13 iterations)
The final length of the internal step   ....  0.300000000
Converting the step to Cartesian space:
 Initial RMS(Int)=    0.0194053868
Transforming coordinates:
 Iter   0:  RMS(Cart)=    0.1292580286 RMS(Int)=    0.5738705830
 Iter   5:  RMS(Cart)=    0.0000001146 RMS(Int)=    0.0000000502
done
Storing new coordinates                 .... done

                                .--------------------.
          ----------------------|Geometry convergence|-------------------------
          Item                value                   Tolerance       Converged
          ---------------------------------------------------------------------
          RMS gradient        0.0078551612            0.0001000000      NO
          MAX gradient        0.0457684630            0.0003000000      NO
          RMS step            0.0194053868            0.0020000000      NO
          MAX step            0.0873692807            0.0040000000      NO
          -------------------------------------------------------------------------
          ........................................................
          Max(Bonds)      0.0462      Max(Angles)    4.47
          Max(Dihed)        3.69      Max(Improp)    0.00
          ---------------------------------------------------------------------

The optimization has not yet converged - more geometry cycles are needed


    ---------------------------------------------------------------------------
                         Redundant Internal Coordinates
                            (Angstroem and degrees)

        Definition                    Value    dE/dq     Step     New-Value
    ----------------------------------------------------------------------------
     1. B(C   1,C   0)                1.5526  0.005573 -0.0073    1.5452   
     2. B(C   2,C   1)                1.4107  0.015799 -0.0132    1.3975   
     3. B(C   3,C   1)                1.4056  0.022252 -0.0183    1.3873   
     4. B(C   6,C   2)                1.3973  0.014559 -0.0115    1.3858   
     5. B(C   7,C   3)                1.3988  0.014871 -0.0119    1.3869   
     6. B(C   8,C   7)                1.3938  0.009368 -0.0072    1.3867   
     7. B(C   8,C   6)                1.3925  0.008138 -0.0061    1.3864   
     8. B(O   9,C   0)                1.3273  0.024589 -0.0170    1.3103   
     9. B(N  13,C  12)                1.3651  0.018005 -0.0146    1.3506   
    10. B(C  14,N  13)                1.3330  0.006155 -0.0045    1.3285   
    11. B(C  14,O   4)                1.2342 -0.009319  0.0047    1.2389   
    12. B(N  15,C  14)                1.3754 -0.022552  0.0186    1.3940   
    13. B(C  16,N  15)                1.3770 -0.007354  0.0064    1.3835   
    14. B(C  16,O   5)                1.2317  0.006399 -0.0032    1.2285   
    15. B(C  17,C  12)                1.3678 -0.003836  0.0029    1.3707   
    16. B(C  17,C  16)                1.5020  0.031440 -0.0348    1.4671   
    17. B(N  19,C  18)                1.4399  0.045768 -0.0462    1.3937   
    18. B(N  19,C  17)                1.4144  0.008884 -0.0080    1.4064   
    19. B(N  19,C   0)                1.5074 -0.006468  0.0081    1.5155   
    20. B(C  20,C  18)                1.4107  0.021119 -0.0176    1.3931   
    21. B(C  21,C  20)                1.4033  0.011596 -0.0093    1.3940   
    22. B(C  21,C  10)                1.5008 -0.000890  0.0010    1.5018   
    23. B(C  22,C  21)                1.4013  0.013483 -0.0107    1.3906   
    24. B(C  22,C  11)                1.5014 -0.001969  0.0022    1.5036   
    25. B(C  23,C  22)                1.4078  0.009308 -0.0076    1.4002   
    26. B(C  24,C  23)                1.4126  0.023342 -0.0195    1.3931   
    27. B(C  24,C  18)                1.4210  0.010568 -0.0096    1.4114   
    28. B(N  25,C  24)                1.4287  0.031799 -0.0311    1.3976   
    29. B(N  25,C  12)                1.4229  0.015945 -0.0149    1.4080   
    30. B(C  26,N  25)                1.4605  0.023867 -0.0257    1.4348   
    31. B(H  27,C   2)                1.0884  0.003383 -0.0042    1.0841   
    32. B(H  28,C   3)                1.0878  0.005648 -0.0071    1.0808   
    33. B(H  29,C   6)                1.0840 -0.000148  0.0002    1.0841   
    34. B(H  30,C   7)                1.0839  0.000309 -0.0004    1.0835   
    35. B(H  31,C   8)                1.0833 -0.001387  0.0017    1.0850   
    36. B(H  32,N  15)                1.0008 -0.011887  0.0124    1.0132   
    37. B(H  33,C  26)                1.0946  0.003554 -0.0045    1.0901   
    38. B(H  34,C  26)                1.0963  0.000295 -0.0004    1.0959   
    39. B(H  35,C  26)                1.0958 -0.000864  0.0011    1.0969   
    40. B(H  36,C  20)                1.0882  0.006377 -0.0080    1.0803   
    41. B(H  37,C  23)                1.0841  0.002306 -0.0029    1.0812   
    42. B(H  38,C  10)                1.0946  0.001248 -0.0016    1.0930   
    43. B(H  39,C  10)                1.0950  0.001099 -0.0014    1.0936   
    44. B(H  40,C  10)                1.0944  0.003985 -0.0051    1.0893   
    45. B(H  41,C  11)                1.0942  0.000891 -0.0011    1.0931   
    46. B(H  42,C  11)                1.0946  0.001275 -0.0016    1.0930   
    47. B(H  43,C  11)                1.0953  0.002993 -0.0038    1.0914   
    48. B(H  44,C   0)                1.1035 -0.016994  0.0223    1.1258   
    49. A(C   1,C   0,H  44)           99.42 -0.014795    1.68    101.10   
    50. A(N  19,C   0,H  44)          106.33  0.006695   -1.91    104.42   
    51. A(C   1,C   0,O   9)          112.43 -0.007219    1.49    113.92   
    52. A(O   9,C   0,N  19)          108.64 -0.025285    4.09    112.73   
    53. A(C   1,C   0,N  19)          113.34  0.035152   -4.47    108.86   
    54. A(O   9,C   0,H  44)          116.45  0.010330   -1.69    114.76   
    55. A(C   0,C   1,C   3)          124.31  0.012842   -1.60    122.70   
    56. A(C   2,C   1,C   3)          117.35 -0.005164    0.57    117.92   
    57. A(C   0,C   1,C   2)          118.34 -0.007675    1.03    119.37   
    58. A(C   1,C   2,H  27)          118.58 -0.001603    0.23    118.80   
    59. A(C   6,C   2,H  27)          119.89  0.000180   -0.02    119.87   
    60. A(C   1,C   2,C   6)          121.48  0.001383   -0.18    121.30   
    61. A(C   7,C   3,H  28)          119.72 -0.005132    0.73    120.45   
    62. A(C   1,C   3,H  28)          118.91  0.004145   -0.56    118.35   
    63. A(C   1,C   3,C   7)          121.33  0.000967   -0.16    121.18   
    64. A(C   2,C   6,H  29)          119.35 -0.001936    0.24    119.59   
    65. A(C   2,C   6,C   8)          119.97  0.001062   -0.09    119.89   
    66. A(C   8,C   6,H  29)          120.66  0.000863   -0.15    120.51   
    67. A(C   8,C   7,H  30)          120.64  0.001636   -0.23    120.41   
    68. A(C   3,C   7,C   8)          120.14 -0.000390    0.06    120.20   
    69. A(C   3,C   7,H  30)          119.20 -0.001247    0.17    119.37   
    70. A(C   6,C   8,H  31)          120.11 -0.000855    0.08    120.19   
    71. A(C   6,C   8,C   7)          119.72  0.002140   -0.21    119.52   
    72. A(C   7,C   8,H  31)          120.15 -0.001291    0.14    120.28   
    73. A(H  38,C  10,H  39)          109.43  0.003587   -0.68    108.75   
    74. A(C  21,C  10,H  38)          110.33 -0.002345    0.32    110.65   
    75. A(H  39,C  10,H  40)          107.42 -0.001611    0.32    107.75   
    76. A(H  38,C  10,H  40)          107.54 -0.001518    0.29    107.83   
    77. A(C  21,C  10,H  40)          111.70  0.004728   -0.65    111.05   
    78. A(C  21,C  10,H  39)          110.31 -0.002729    0.39    110.70   
    79. A(H  41,C  11,H  43)          107.30 -0.001251    0.29    107.59   
    80. A(C  22,C  11,H  43)          111.68  0.003075   -0.39    111.29   
    81. A(C  22,C  11,H  41)          110.43 -0.002452    0.35    110.78   
    82. A(H  41,C  11,H  42)          109.46  0.003722   -0.73    108.73   
    83. A(H  42,C  11,H  43)          107.57 -0.000559    0.14    107.71   
    84. A(C  22,C  11,H  42)          110.30 -0.002375    0.32    110.61   
    85. A(C  17,C  12,N  25)          118.43 -0.000102    0.13    118.56   
    86. A(N  13,C  12,N  25)          113.23  0.002949   -0.34    112.89   
    87. A(N  13,C  12,C  17)          128.34 -0.002848    0.21    128.55   
    88. A(C  12,N  13,C  14)          118.15  0.002634   -0.43    117.72   
    89. A(N  13,C  14,N  15)          117.49  0.003746   -0.41    117.08   
    90. A(O   4,C  14,N  15)          118.03 -0.004117    0.47    118.50   
    91. A(O   4,C  14,N  13)          124.46  0.000291   -0.02    124.44   
    92. A(C  14,N  15,C  16)          125.07 -0.000259    0.30    125.36   
    93. A(C  16,N  15,H  32)          113.98  0.000260    0.15    114.13   
    94. A(C  14,N  15,H  32)          114.69 -0.001312    0.34    115.03   
    95. A(O   5,C  16,N  15)          118.70 -0.003252    0.41    119.11   
    96. A(N  15,C  16,C  17)          113.86  0.008954   -0.95    112.91   
    97. A(O   5,C  16,C  17)          127.20 -0.005938    0.74    127.94   
    98. A(C  16,C  17,N  19)          122.99  0.002919   -0.40    122.60   
    99. A(C  12,C  17,N  19)          124.46  0.009400   -1.07    123.39   
   100. A(C  12,C  17,C  16)          112.50 -0.012297    1.47    113.97   
   101. A(N  19,C  18,C  20)          121.12  0.010461   -1.23    119.89   
   102. A(C  20,C  18,C  24)          118.77 -0.000695    0.08    118.85   
   103. A(N  19,C  18,C  24)          120.07 -0.009795    1.17    121.24   
   104. A(C  17,N  19,C  18)          115.73 -0.000999    0.12    115.85   
   105. A(C   0,N  19,C  18)          114.01 -0.003305    0.48    114.49   
   106. A(C   0,N  19,C  17)          124.33  0.004538   -0.74    123.59   
   107. A(C  18,C  20,C  21)          122.68  0.001858   -0.24    122.44   
   108. A(C  21,C  20,H  36)          119.35 -0.003615    0.50    119.85   
   109. A(C  18,C  20,H  36)          117.95  0.001743   -0.25    117.70   
   110. A(C  20,C  21,C  22)          118.82 -0.000779    0.11    118.92   
   111. A(C  10,C  21,C  22)          122.12  0.004192   -0.53    121.59   
   112. A(C  10,C  21,C  20)          119.06 -0.003414    0.42    119.48   
   113. A(C  21,C  22,C  23)          119.03  0.000179   -0.00    119.03   
   114. A(C  11,C  22,C  23)          119.45 -0.001928    0.23    119.68   
   115. A(C  11,C  22,C  21)          121.50  0.001739   -0.22    121.28   
   116. A(C  22,C  23,C  24)          122.79  0.002764   -0.35    122.44   
   117. A(C  24,C  23,H  37)          119.43 -0.002077    0.28    119.71   
   118. A(C  22,C  23,H  37)          117.77 -0.000712    0.09    117.85   
   119. A(C  23,C  24,N  25)          122.55  0.001759   -0.15    122.40   
   120. A(C  18,C  24,N  25)          119.55  0.001577   -0.26    119.30   
   121. A(C  18,C  24,C  23)          117.89 -0.003338    0.41    118.30   
   122. A(C  24,N  25,C  26)          117.71 -0.011290    1.46    119.17   
   123. A(C  12,N  25,C  26)          122.91  0.011531   -1.49    121.42   
   124. A(C  12,N  25,C  24)          119.01 -0.000211   -0.01    119.00   
   125. A(H  34,C  26,H  35)          109.28 -0.000898    0.16    109.43   
   126. A(H  33,C  26,H  35)          107.70 -0.004126    0.47    108.16   
   127. A(N  25,C  26,H  35)          110.65 -0.004850    0.61    111.27   
   128. A(H  33,C  26,H  34)          104.20 -0.012334    2.09    106.29   
   129. A(N  25,C  26,H  34)          111.38  0.004667   -0.65    110.73   
   130. A(N  25,C  26,H  33)          113.35  0.016682   -2.53    110.82   
   131. D(C   2,C   1,C   0,O   9)    174.66  0.004890   -1.57    173.10   
   132. D(C   2,C   1,C   0,N  19)    -61.64 -0.007214    1.59    -60.05   
   133. D(C   2,C   1,C   0,H  44)     50.81  0.005120   -1.30     49.52   
   134. D(C   3,C   1,C   0,O   9)     -4.41  0.004761   -1.03     -5.44   
   135. D(C   3,C   1,C   0,N  19)    119.29 -0.007342    2.13    121.42   
   136. D(H  27,C   2,C   1,C   0)      3.25 -0.000006    0.17      3.42   
   137. D(C   6,C   2,C   1,C   3)     -0.35 -0.000680    0.28     -0.06   
   138. D(C   6,C   2,C   1,C   0)   -179.48 -0.000972    0.80   -178.68   
   139. D(H  27,C   2,C   1,C   3)   -177.62  0.000286   -0.34   -177.96   
   140. D(H  28,C   3,C   1,C   2)    178.00  0.000072    0.08    178.08   
   141. D(C   7,C   3,C   1,C   0)    179.17  0.000917   -0.89    178.28   
   142. D(H  28,C   3,C   1,C   0)     -2.92  0.000176   -0.45     -3.37   
   143. D(C   7,C   3,C   1,C   2)      0.09  0.000813   -0.36     -0.27   
   144. D(C   8,C   6,C   2,H  27)    177.76 -0.000784    0.55    178.31   
   145. D(C   8,C   6,C   2,C   1)      0.53  0.000242   -0.09      0.43   
   146. D(H  29,C   6,C   2,H  27)     -0.60 -0.000382    0.25     -0.34   
   147. D(H  29,C   6,C   2,C   1)   -177.83  0.000644   -0.39   -178.22   
   148. D(H  30,C   7,C   3,C   1)    178.61 -0.000562    0.35    178.96   
   149. D(C   8,C   7,C   3,H  28)   -177.91  0.000062   -0.16   -178.07   
   150. D(H  30,C   7,C   3,H  28)      0.72 -0.000007   -0.07      0.66   
   151. D(C   8,C   7,C   3,C   1)     -0.02 -0.000493    0.25      0.23   
   152. D(H  31,C   8,C   7,C   3)    178.58 -0.000204    0.15    178.73   
   153. D(C   6,C   8,C   7,C   3)      0.19  0.000011   -0.05      0.14   
   154. D(C   6,C   8,C   7,H  30)   -178.41  0.000121   -0.16   -178.57   
   155. D(H  31,C   8,C   6,H  29)     -0.49 -0.000119    0.07     -0.42   
   156. D(H  31,C   8,C   6,C   2)   -178.83  0.000335   -0.23   -179.06   
   157. D(H  31,C   8,C   7,H  30)     -0.02 -0.000094    0.04      0.02   
   158. D(C   7,C   8,C   6,H  29)    177.90 -0.000341    0.28    178.17   
   159. D(C   7,C   8,C   6,C   2)     -0.44  0.000113   -0.03     -0.47   
   160. D(C  14,N  13,C  12,N  25)   -176.32 -0.000070   -0.22   -176.54   
   161. D(C  14,N  13,C  12,C  17)      3.63 -0.001015    0.24      3.87   
   162. D(N  15,C  14,N  13,C  12)      2.63  0.000518   -0.35      2.28   
   163. D(O   4,C  14,N  13,C  12)   -175.69  0.003857   -2.24   -177.92   
   164. D(H  32,N  15,C  14,O   4)      8.83 -0.000672    0.52      9.35   
   165. D(C  16,N  15,C  14,N  13)    -19.23 -0.000456    0.53    -18.69   
   166. D(C  16,N  15,C  14,O   4)    159.20 -0.003509    2.29    161.49   
   167. D(H  32,N  15,C  14,N  13)   -169.60  0.002381   -1.24   -170.84   
   168. D(C  17,C  16,N  15,H  32)    177.42 -0.001487    1.16    178.59   
   169. D(C  17,C  16,N  15,C  14)     26.87  0.001735   -0.65     26.22   
   170. D(O   5,C  16,N  15,H  32)      2.62  0.001391   -1.05      1.57   
   171. D(O   5,C  16,N  15,C  14)   -147.93  0.004612   -2.86   -150.80   
   172. D(N  19,C  17,C  16,N  15)    164.35 -0.000912    0.35    164.70   
   173. D(N  19,C  17,C  16,O   5)    -21.37 -0.003810    2.75    -18.62   
   174. D(C  12,C  17,C  16,N  15)    -18.02 -0.000180    0.32    -17.70   
   175. D(C  12,C  17,C  16,O   5)    156.25 -0.003078    2.73    158.98   
   176. D(N  19,C  17,C  12,N  25)      2.06 -0.000959    0.41      2.47   
   177. D(N  19,C  17,C  12,N  13)   -177.89  0.000028   -0.07   -177.96   
   178. D(C  16,C  17,C  12,N  25)   -175.53 -0.001511    0.41   -175.11   
   179. D(C  16,C  17,C  12,N  13)      4.53 -0.000525   -0.07      4.46   
   180. D(C  17,N  19,C  18,C  24)     12.61  0.000168   -0.43     12.18   
   181. D(C  17,N  19,C  18,C  20)   -165.04  0.001025   -0.90   -165.94   
   182. D(C   0,N  19,C  18,C  24)   -141.54 -0.001571    0.05   -141.48   
   183. D(C  18,N  19,C  17,C  16)    162.87 -0.000345    0.17    163.04   
   184. D(C  18,N  19,C  17,C  12)    -14.47 -0.000629    0.14    -14.34   
   185. D(C   0,N  19,C  17,C  16)    -45.97 -0.000885    0.02    -45.95   
   186. D(C   0,N  19,C  17,C  12)    136.69 -0.001169   -0.02    136.67   
   187. D(C  18,N  19,C   0,O   9)   -101.98 -0.005029    3.45    -98.53   
   188. D(C   0,N  19,C  18,C  20)     40.81 -0.000714   -0.41     40.40   
   189. D(C  18,N  19,C   0,C   1)    132.28 -0.001527    1.58    133.86   
   190. D(C  17,N  19,C   0,H  44)   -127.51 -0.003605    2.91   -124.61   
   191. D(C  17,N  19,C   0,O   9)    106.42 -0.005034    3.69    110.11   
   192. D(C  17,N  19,C   0,C   1)    -19.32 -0.001532    1.82    -17.50   
   193. D(C  21,C  20,C  18,N  19)    179.50 -0.000680    0.37    179.88   
   194. D(H  36,C  20,C  18,C  24)   -176.56  0.001002   -0.56   -177.12   
   195. D(H  36,C  20,C  18,N  19)      1.13 -0.000057   -0.08      1.05   
   196. D(C  21,C  20,C  18,C  24)      1.82  0.000379   -0.11      1.71   
   197. D(C  22,C  21,C  20,C  18)     -0.85  0.000238   -0.22     -1.07   
   198. D(C  10,C  21,C  20,H  36)     -1.70 -0.000259    0.17     -1.53   
   199. D(C  10,C  21,C  20,C  18)    179.95  0.000288   -0.27    179.67   
   200. D(C  22,C  21,C  10,H  39)     60.42  0.000647   -0.22     60.20   
   201. D(C  22,C  21,C  10,H  38)    -60.61 -0.000519    0.17    -60.44   
   202. D(C  20,C  21,C  10,H  40)     -1.00 -0.000220    0.09     -0.92   
   203. D(C  20,C  21,C  10,H  39)   -120.41  0.000551   -0.15   -120.57   
   204. D(C  22,C  21,C  20,H  36)    177.50 -0.000308    0.23    177.72   
   205. D(C  20,C  21,C  10,H  38)    118.56 -0.000615    0.23    118.79   
   206. D(C  23,C  22,C  21,C  20)     -0.59 -0.000321    0.18     -0.41   
   207. D(C  23,C  22,C  21,C  10)    178.59 -0.000437    0.25    178.83   
   208. D(C  11,C  22,C  21,C  20)   -179.31  0.000208   -0.11   -179.42   
   209. D(C  11,C  22,C  21,C  10)     -0.14  0.000092   -0.04     -0.18   
   210. D(C  23,C  22,C  11,H  42)   -116.03  0.000995   -0.42   -116.45   
   211. D(C  23,C  22,C  11,H  41)    122.86 -0.000496    0.06    122.91   
   212. D(C  21,C  22,C  11,H  43)   -177.74  0.000204   -0.00   -177.74   
   213. D(C  21,C  22,C  11,H  42)     62.69  0.000489   -0.13     62.56   
   214. D(C  21,C  22,C  11,H  41)    -58.42 -0.001001    0.34    -58.08   
   215. D(H  37,C  23,C  22,C  21)   -177.59  0.001065   -0.61   -178.20   
   216. D(H  37,C  23,C  22,C  11)      1.16  0.000593   -0.34      0.82   
   217. D(C  24,C  23,C  22,C  21)      1.07 -0.000172    0.18      1.26   
   218. D(C  24,C  23,C  22,C  11)    179.82 -0.000643    0.46    180.28   
   219. D(N  25,C  24,C  23,H  37)     -1.28  0.000611   -0.22     -1.50   
   220. D(N  25,C  24,C  23,C  22)   -179.92  0.001848   -1.03   -180.95   
   221. D(C  18,C  24,C  23,H  37)    178.53 -0.000450    0.30    178.83   
   222. D(C  18,C  24,C  23,C  22)     -0.11  0.000788   -0.51     -0.62   
   223. D(N  25,C  24,C  18,C  20)    178.52 -0.001831    0.96    179.48   
   224. D(N  25,C  24,C  18,N  19)      0.81 -0.001262    0.54      1.35   
   225. D(C  23,C  24,C  18,C  20)     -1.30 -0.000804    0.45     -0.84   
   226. D(C  23,C  24,C  18,N  19)   -179.01 -0.000235    0.03   -178.98   
   227. D(C  26,N  25,C  24,C  23)     -7.02 -0.001597    0.93     -6.10   
   228. D(C  26,N  25,C  24,C  18)    173.17 -0.000510    0.40    173.56   
   229. D(C  12,N  25,C  24,C  23)    166.17 -0.000518    0.46    166.63   
   230. D(C  12,N  25,C  24,C  18)    -13.64  0.000568   -0.07    -13.71   
   231. D(C  26,N  25,C  12,C  17)   -174.83  0.000947   -0.76   -175.59   
   232. D(C  26,N  25,C  12,N  13)      5.12  0.000103   -0.35      4.77   
   233. D(C  24,N  25,C  12,C  17)     12.34  0.001496   -0.48     11.86   
   234. D(C  24,N  25,C  12,N  13)   -167.70  0.000651   -0.08   -167.78   
   235. D(H  35,C  26,N  25,C  12)    -97.83 -0.000805   -0.18    -98.01   
   236. D(H  34,C  26,N  25,C  24)    -46.69  0.000685   -0.73    -47.41   
   237. D(H  34,C  26,N  25,C  12)    140.40  0.000504   -0.36    140.05   
   238. D(H  33,C  26,N  25,C  24)   -163.82  0.002173   -1.27   -165.09   
   239. D(H  33,C  26,N  25,C  12)     23.27  0.001991   -0.90     22.37   
    ----------------------------------------------------------------------------

Geometry step timings:
Preparation and reading OPT file:      0.000 s ( 0.135 %)
Internal coordinates            :      0.000 s ( 0.187 %)
B/P matrices and projection     :      0.006 s (26.636 %)
Hessian update/contruction      :      0.002 s (10.198 %)
Making the step                 :      0.011 s (51.736 %)
Converting the step to Cartesian:      0.001 s ( 3.197 %)
Storing new data                :      0.000 s ( 0.285 %)
Checking convergence            :      0.000 s ( 0.369 %)
Final printing                  :      0.002 s ( 7.244 %)
Total time                      :      0.021 s

Time for energy+gradient        :      0.080 s
Time for complete geometry iter :      0.103 s

         *************************************************************
         *                GEOMETRY OPTIMIZATION CYCLE   2            *
         *************************************************************
---------------------------------
CARTESIAN COORDINATES (ANGSTROEM)
---------------------------------
  C    -1.166080    0.310868   -1.136682
  C    -1.539467   -1.175965   -1.330857
  C    -1.761719   -1.978877   -0.208815
  C    -1.637494   -1.766891   -2.582191
  O    -7.261527   -1.167129    0.247253
  O    -4.103862    0.086964   -2.598279
  C    -2.071989   -3.323563   -0.335829
  C    -1.940752   -3.113312   -2.718567
  C    -2.157637   -3.896787   -1.595220
  O    -0.842850    0.927962   -2.246483
  C     0.974412    4.279022    1.276596
  C    -0.499647    4.407864    3.837957
  C    -4.293928    0.485514    0.909295
  N    -5.521818   -0.021179    1.153480
  C    -6.123112   -0.684151    0.171829
  N    -5.410969   -0.842534   -1.016005
  C    -4.318156   -0.086607   -1.401127
  C    -3.583054    0.475551   -0.262616
  C    -1.859694    1.818899    0.661918
  N    -2.285155    1.003213   -0.384984
  C    -0.728059    2.616118    0.504866
  C    -0.257115    3.453277    1.515126
  C    -0.952924    3.513444    2.717570
  C    -2.108782    2.738565    2.873213
  C    -2.577208    1.886476    1.875547
  N    -3.720089    1.098903    2.039247
  C    -4.367422    1.063441    3.319222
  H    -1.721731   -1.524576    0.774730
  H    -1.498249   -1.145597   -3.455475
  H    -2.267464   -3.914010    0.552151
  H    -2.026696   -3.540847   -3.710471
  H    -2.415112   -4.945471   -1.700938
  H    -5.945524   -1.221292   -1.788857
  H    -5.066277    0.228812    3.376852
  H    -3.635485    0.907170    4.119750
  H    -4.924130    1.989290    3.509289
  H    -0.220505    2.585428   -0.448233
  H    -2.651372    2.822314    3.804649
  H     0.744721    5.344859    1.353930
  H     1.751873    4.033125    2.005322
  H     1.381311    4.096789    0.282670
  H     0.521967    4.163398    4.140120
  H    -0.533498    5.456322    3.531043
  H    -1.138603    4.298121    4.715985
  H    -0.333124    0.227076   -0.383980

----------------------------
CARTESIAN COORDINATES (A.U.)
----------------------------
[...]
  H    -1.287218    4.646688    4.535407
  H    -0.394358   -0.149072    0.159136

----------------------------
CARTESIAN COORDINATES (A.U.)
----------------------------
  NO LB    ZA    FRAG    MASS        X           Y           Z
   0 C   6.0000    0    12.011   -1.787273    0.115418   -1.577998
   1 C   6.0000    0    12.011   -2.879513   -2.446502   -2.352797
   2 C   6.0000    0    12.011   -3.821012   -4.150502   -0.592322
   3 C   6.0000    0    12.011   -2.796097   -3.150764   -4.874767
   4 O   8.0000    0    15.999  -13.302675   -2.798895    1.001179
   5 O   8.0000    0    15.999   -7.406520   -0.233357   -4.603458
   6 C   6.0000    0    12.011   -4.699871   -6.494409   -1.349365
   7 C   6.0000    0    12.011   -3.646901   -5.498005   -5.636468
   8 C   6.0000    0    12.011   -4.613302   -7.177310   -3.873939
   9 O   8.0000    0    15.999   -0.475995    1.295109   -3.207925
  10 C   6.0000    0    12.011    1.783627    8.226367    2.269472
  11 C   6.0000    0    12.011   -1.133790    8.836308    6.972958
  12 C   6.0000    0    12.011   -7.845638    0.650640    2.078482
  13 N   7.0000    0    14.007  -10.082077   -0.429092    2.569477
  14 C   6.0000    0    12.011  -11.281663   -1.653320    0.728257
  15 N   7.0000    0    14.007  -10.192408   -1.545200   -1.665373
  16 C   6.0000    0    12.011   -7.933712   -0.362734   -2.337666
  17 C   6.0000    0    12.011   -6.573493    0.603040   -0.208940
  18 C   6.0000    0    12.011   -3.463602    3.397910    1.328305
  19 N   7.0000    0    14.007   -4.145132    1.686799   -0.474694
  20 C   6.0000    0    12.011   -1.344136    4.927968    0.966992
  21 C   6.0000    0    12.011   -0.542226    6.664794    2.764984
  22 C   6.0000    0    12.011   -1.906712    6.951237    4.987019
  23 C   6.0000    0    12.011   -4.028608    5.415287    5.387014
  24 C   6.0000    0    12.011   -4.798793    3.636638    3.636766
  25 N   7.0000    0    14.007   -6.783037    1.968157    4.118026
  26 C   6.0000    0    12.011   -8.217696    2.163018    6.412978
  27 H   1.0000    0     1.008   -3.886221   -3.632368    1.387033
  28 H   1.0000    0     1.008   -2.059936   -1.778086   -6.192541
  29 H   1.0000    0     1.008   -5.473549   -7.794598    0.033808
  30 H   1.0000    0     1.008   -3.587755   -6.027510   -7.617038
  31 H   1.0000    0     1.008   -5.307854   -9.015302   -4.465902
  32 H   1.0000    0     1.008  -11.171268   -2.337859   -3.105493
  33 H   1.0000    0     1.008   -9.719060    0.762066    6.268841
  34 H   1.0000    0     1.008   -7.013083    1.767889    8.050404
  35 H   1.0000    0     1.008   -9.066633    4.043606    6.646054
  36 H   1.0000    0     1.008   -0.304650    4.635232   -0.764089
  37 H   1.0000    0     1.008   -5.025426    5.608397    7.162649
  38 H   1.0000    0     1.008    1.333780   10.242461    2.228802
  39 H   1.0000    0     1.008    3.204084    7.934889    3.740347
  40 H   1.0000    0     1.008    2.602233    7.702552    0.459233
  41 H   1.0000    0     1.008    0.769279    8.445926    7.678427
  42 H   1.0000    0     1.008   -1.127667   10.759386    6.216717
  43 H   1.0000    0     1.008   -2.432489    8.780968    8.570677
  44 H   1.0000    0     1.008   -0.745228   -0.281705    0.300723

      -----------------------------------------------------------      
     |                   =====================                   |     
     |                           x T B                           |     
     |                   =====================                   |     
     |                         S. Grimme                         |     
     |          Mulliken Center for Theoretical Chemistry        |     
     |                    University of Bonn                     |     
      -----------------------------------------------------------      

   * xtb version 6.7.1 (edcfbbe) compiled by 'albert@albert-system' on 2024-07-22

   xtb is free software: you can redistribute it and/or modify it under
   the terms of the GNU Lesser General Public License as published by
   the Free Software Foundation, either version 3 of the License, or
   (at your option) any later version.
   
   xtb is distributed in the hope that it will be useful,
   but WITHOUT ANY WARRANTY; without even the implied warranty of
   MERCHANTABILITY or FITNESS FOR A PARTICULAR PURPOSE.  See the
   GNU Lesser General Public License for more details.
   
   Cite this work as:
   * C. Bannwarth, E. Caldeweyher, S. Ehlert, A. Hansen, P. Pracht,
     J. Seibert, S. Spicher, S. Grimme, WIREs Comput. Mol. Sci., 2020, 11,
     e01493. DOI: 10.1002/wcms.1493
   
   for GFN2-xTB:
   * C. Bannwarth, S. Ehlert and S. Grimme., J. Chem. Theory Comput., 2019,
     15, 1652-1671. DOI: 10.1021/acs.jctc.8b01176
   for GFN1-xTB:
   * S. Grimme, C. Bannwarth, P. Shushkov, J. Chem. Theory Comput., 2017,
     13, 1989-2009. DOI: 10.1021/acs.jctc.7b00118
   for GFN0-xTB:
   * P. Pracht, E. Caldeweyher, S. Ehlert, S. Grimme, ChemRxiv, 2019, preprint.
     DOI: 10.26434/chemrxiv.8326202.v1
   for GFN-FF:
   * S. Spicher and S. Grimme, Angew. Chem. Int. Ed., 2020, 59, 15665-15673.
     DOI: 10.1002/anie.202004239
   
   for ALPB and GBSA implicit solvation:
   * S. Ehlert, M. Stahn, S. Spicher, S. Grimme, J. Chem. Theory Comput.,
     2021, 17, 4250-4261. DOI: 10.1021/acs.jctc.1c00471
   
   for ddCOSMO and CPCM-X implicit solvation:
   * M. Stahn, S. Ehlert, S. Grimme, J. Phys. Chem. A,
     2023, XX, XXXX-XXXX. DOI: 10.1021/acs.jpca.3c04382
   
   for DFT-D4:
   * E. Caldeweyher, C. Bannwarth and S. Grimme, J. Chem. Phys., 2017,
     147, 034112. DOI: 10.1063/1.4993215
   * E. Caldeweyher, S. Ehlert, A. Hansen, H. Neugebauer, S. Spicher,
     C. Bannwarth and S. Grimme, J. Chem. Phys., 2019, 150, 154122.
     DOI: 10.1063/1.5090222
   * E. Caldeweyher, J.-M. Mewes, S. Ehlert and S. Grimme, Phys. Chem. Chem. Phys.
     2020, 22, 8499-8512. DOI: 10.1039/D0CP00502A
   
   for sTDA-xTB:
   * S. Grimme and C. Bannwarth, J. Chem. Phys., 2016, 145, 054103.
     DOI: 10.1063/1.4959605
   
   in the mass-spec context:
   * V. Asgeirsson, C. Bauer and S. Grimme, Chem. Sci., 2017, 8, 4879.
     DOI: 10.1039/c7sc00601b
   * J. Koopman and S. Grimme, ACS Omega 2019, 4, 12, 15120-15133.
     DOI: 10.1021/acsomega.9b02011
   
   for metadynamics refer to:
   * S. Grimme, J. Chem. Theory Comput., 2019, 155, 2847-2862
     DOI: 10.1021/acs.jctc.9b00143
   
   for SPH calculations refer to:
   * S. Spicher and S. Grimme, J. Chem. Theory Comput., 2021, 17, 1701-1714
     DOI: 10.1021/acs.jctc.0c01306
   
   for ONIOM refer to:
   * C. Plett, A. Katbashev, S. Ehlert, S. Grimme, M. Bursch,
     Phys. Chem. Chem. Phys., 2023, 25, 17860-17868. DOI: 10.1039/D3CP02178E
   
   for DIPRO refer to:
   * J. Kohn, N. Gildemeister, S. Grimme, D. Fazzi, A. Hansen,
     J. Chem. Phys., 2023, just accepted.
   
   for PTB refer to:
   * S. Grimme, M. Mueller, A. Hansen, J. Chem. Phys., 2023, 158, 124111.
     DOI: 10.1063/5.0137838
   
   with help from (in alphabetical order)
   P. Atkinson, C. Bannwarth, F. Bohle, G. Brandenburg, E. Caldeweyher
   M. Checinski, S. Dohm, S. Ehlert, S. Ehrlich, I. Gerasimov, C. Hölzer
   A. Katbashev, J. Kohn, J. Koopman, C. Lavigne, S. Lehtola, F. März, M. Müller,
   F. Musil, H. Neugebauer, J. Pisarek, C. Plett, P. Pracht, F. Pultar,
   J. Seibert, P. Shushkov, S. Spicher, M. Stahn, M. Steiner, T. Strunk,
   J. Stückrath, T. Rose, and J. Unsleber
   
 * started run on 2025/11/13 at 17:48:38.620     
   ID    Z sym.   atoms
    1    6 C      1-4, 7-9, 11-13, 15, 17-19, 21-25, 27
    2    8 O      5, 6, 10
    3    7 N      14, 16, 20, 26
    4    1 H      28-45

           -------------------------------------------------
          |                Calculation Setup                |
           -------------------------------------------------

          program call               : /home/mchrnwsk/orca_6_1_0/otool_xtb /home/mchrnwsk/prometheozyme/ingredients/lmo-mandalate/optimised/adduct_left_d/opt_XTB.xyz --grad -c -2 -u 0 -P 16 --namespace /home/mchrnwsk/prometheozyme/ingredients/lmo-mandalate/optimised/adduct_left_d/opt --input /home/mchrnwsk/prometheozyme/ingredients/lmo-mandalate/optimised/adduct_left_d/opt_XTB.input.tmp --acc 0.200000
          calculation namespace      : /home/mchrnwsk/prometheozyme/ingredients/lmo-mandalate/optimised/adduct_left_d/opt
          coordinate file            : /home/mchrnwsk/prometheozyme/ingredients/lmo-mandalate/optimised/adduct_left_d/opt_XTB.xyz
          omp threads                :                    16


           -------------------------------------------------
          |                 G F N 2 - x T B                 |
           -------------------------------------------------

        Reference                      10.1021/acs.jctc.8b01176
      * Hamiltonian:
        H0-scaling (s, p, d)           1.850000    2.230000    2.230000
        zeta-weighting                 0.500000
      * Dispersion:
        s8                             2.700000
        a1                             0.520000
        a2                             5.000000
        s9                             5.000000
      * Repulsion:
        kExp                           1.500000    1.000000
        rExp                           1.000000
      * Coulomb:
        alpha                          2.000000
        third order                    shell-resolved
        anisotropic                    true
        a3                             3.000000
        a5                             4.000000
        cn-shift                       1.200000
        cn-exp                         4.000000
        max-rad                        5.000000

q/qsh data taken from xtbrestart
CAMM data taken from xtbrestart

          ...................................................
          :                      SETUP                      :
          :.................................................:
          :  # basis functions                 126          :
          :  # atomic orbitals                 126          :
          :  # shells                           72          :
          :  # electrons                       138          :
          :  max. iterations                   250          :
          :  Hamiltonian                  GFN2-xTB          :
          :  restarted?                       true          :
          :  GBSA solvation                  false          :
          :  PC potential                    false          :
          :  electronic temp.          300.0000000     K    :
          :  accuracy                    0.2000000          :
          :  -> integral cutoff          0.3198970E+02      :
          :  -> integral neglect         0.2000000E-08      :
          :  -> SCF convergence          0.2000000E-06 Eh   :
          :  -> wf. convergence          0.2000000E-04 e    :
          :  Broyden damping             0.4000000          :
          :  net charge                         -2          :
          :  unpaired electrons                  0          :
          ...................................................

 iter      E             dE          RMSdq      gap      omega  full diag
   1    -77.3880382 -0.773880E+02  0.357E-03    1.78       0.0  T
   2    -77.3880382 -0.277600E-07  0.212E-03    1.78       7.0  T
   3    -77.3880382  0.565176E-07  0.126E-03    1.78      11.8  T
   4    -77.3880382 -0.772638E-07  0.249E-04    1.78      59.9  T
   5    -77.3880383 -0.264511E-08  0.100E-04    1.78     148.4  T
   6    -77.3880383 -0.148887E-09  0.556E-05    1.78     268.1  T

   *** convergence criteria satisfied after 6 iterations ***

         #    Occupation            Energy/Eh            Energy/eV
      -------------------------------------------------------------
         1        2.0000           -0.4320811             -11.7575
       ...           ...                  ...                  ...
        63        2.0000           -0.1447707              -3.9394
        64        2.0000           -0.1296046              -3.5267
        65        2.0000           -0.1231501              -3.3511
        66        2.0000           -0.1221279              -3.3233
        67        2.0000           -0.0810106              -2.2044
        68        2.0000           -0.0673434              -1.8325
        69        2.0000           -0.0611127              -1.6630 (HOMO)
        70                          0.0043311               0.1179 (LUMO)
        71                          0.0046142               0.1256
        72                          0.0131928               0.3590
        73                          0.0248072               0.6750
        74                          0.0437590               1.1907
       ...                                ...                  ...
       126                          0.9343476              25.4249
      -------------------------------------------------------------
                  HL-Gap            0.0654438 Eh            1.7808 eV
             Fermi-level           -0.0283908 Eh           -0.7726 eV

 SCC (total)                   0 d,  0 h,  0 min,  0.030 sec
 SCC setup                      ...        0 min,  0.000 sec (  1.383%)
 Dispersion                     ...        0 min,  0.001 sec (  2.946%)
 classical contributions        ...        0 min,  0.000 sec (  0.161%)
 integral evaluation            ...        0 min,  0.004 sec ( 12.396%)
 iterations                     ...        0 min,  0.021 sec ( 68.902%)
 molecular gradient             ...        0 min,  0.004 sec ( 13.444%)
 printout                       ...        0 min,  0.000 sec (  0.670%)

         :::::::::::::::::::::::::::::::::::::::::::::::::::::
         ::                     SUMMARY                     ::
         :::::::::::::::::::::::::::::::::::::::::::::::::::::
         :: total energy             -76.323007839244 Eh    ::
         :: gradient norm              0.000287389358 Eh/a0 ::
         :: HOMO-LUMO gap              1.780815559151 eV    ::
         ::.................................................::
         :: SCC energy               -77.387364824188 Eh    ::
         :: -> isotropic ES            0.445736090395 Eh    ::
         :: -> anisotropic ES          0.016918048017 Eh    ::
         :: -> anisotropic XC          0.021186095572 Eh    ::
         :: -> dispersion             -0.062909632323 Eh    ::
         :: repulsion energy           1.064356984944 Eh    ::
         :: add. restraining           0.000000000000 Eh    ::
         :: total charge              -2.000000000000 e     ::
         :::::::::::::::::::::::::::::::::::::::::::::::::::::


Property printout bound to 'properties.out'

           -------------------------------------------------
          | TOTAL ENERGY              -76.323007839244 Eh   |
          | GRADIENT NORM               0.000287389358 Eh/α |
          | HOMO-LUMO GAP               1.780815559151 eV   |
           -------------------------------------------------

------------------------------------------------------------------------
 * finished run on 2025/11/13 at 17:48:38.665     
------------------------------------------------------------------------
 total:
 * wall-time:     0 d,  0 h,  0 min,  0.045 sec
 *  cpu-time:     0 d,  0 h,  0 min,  0.661 sec
 * ratio c/w:    14.737 speedup
 SCF:
 * wall-time:     0 d,  0 h,  0 min,  0.031 sec
 *  cpu-time:     0 d,  0 h,  0 min,  0.484 sec
 * ratio c/w:    15.806 speedup


-------------------------   --------------------
FINAL SINGLE POINT ENERGY       -76.323007839240
-------------------------   --------------------


-------------
DIPOLE MOMENT
-------------
                                X             Y             Z
Total Dipole Moment    :     11.45500      -0.62600       1.70200
                        -----------------------------------------
Magnitude (a.u.)       :     11.59766
Magnitude (Debye)      :     29.47891

                                *** OPTIMIZATION RUN DONE ***


--------------------------------
SUGGESTED CITATIONS FOR THIS RUN
--------------------------------

Below you find a list of papers that are relevant to this ORCA run
We neither can nor want to force you to cite these papers, but we appreciate if you do
You receive ORCA, which is the product of decades of hard work by many enthusiastic individuals, for free
The only thing we kindly ask in return is that you cite our papers,
We deeply appreciate it, if you show your appreciation for ORCA by not just citing the generic ORCA reference.

Please note that relegating all ORCA citations to the supporting information does *not* help us.
SI sections are not indexed - citations you put there will not count into any citation statistics
But we need these citations in order to attract the funding resources that allow us to do what we are doing

Therefore, if you are a happy ORCA user, please consider citing a few of the papers listed below in the main body of your paper

In addition to the list printed below, the program has created the file /home/mchrnwsk/prometheozyme/ingredients/lmo-mandalate/optimised/adduct_left_d/opt.bibtex that contains the list in bibtex format
You can import this file easily into all common literature databanks and citation aid programs


List of essential papers. We consider these as the minimum necessary citations

  1. Bannwarth, C.; Ehlert, S.; Grimme, S.
     GFN2-xTB—An Accurate and Broadly Parametrized Self-Consistent Tight-Binding Quantum Chemical Method with Multipole Electrostatics and Density-Dependent Dispersion Contributions
     J. Chem. Theory Comput. 2019 15(3), 1652-1671
     doi.org/10.1021/acs.jctc.8b01176
  2. Neese, F.
     Software update: the ORCA program system, version 6.0
     WIRES Comput. Molec. Sci. 2025 15(1), e70019
     doi.org/10.1002/wcms.7019

List of papers to cite with high priority. The work reported in these papers was absolutely
necessary for this run to complete.
Our perspective: the developers of density functionals and basis sets usually get cited in chemistry papers
Good! But without the algorithms to do something with them, the functionals or basis sets would not do anything.
Hence, in our opinion, the algorithm design and method developments papers are equally worthy of getting cited

  1. Bannwarth, C.; Caldeweyher, E.; Ehlert, S.; Hansen, A.; Pracht, P.; Seibert, J.; Spicher, S.; Grimme, S.
     Extended tight-binding quantum chemistry methods
     WIRES Comput. Molec. Sci. 2020 11(2), e1493
     doi.org/10.1002/wcms.1493

List of suggested additional citations. These are papers that are important in the 'surrounding' of 
of this run, or papers that preceded the highly important papers. If you like your results we are grateful for a citation.

  1. Neese, F.
     The ORCA program system
     WIRES Comput. Molec. Sci. 2012 2(1), 73-78
     doi.org/10.1002/wcms.81
  2. Neese, F.
     Software update: the ORCA program system, version 4.0
     WIRES Comput. Molec. Sci. 2018 8(1), 1-6
     doi.org/10.1002/wcms.1327
  3. Neese, F.; Wennmohs, F.; Becker, U.; Riplinger, C.
     The ORCA quantum chemistry program package
     J. Chem. Phys. 2020 152(22), 224108
     doi.org/10.1063/5.0004608
  4. Neese, F.
     Software update: The ORCA program system—Version 5.0
     WIRES Comput. Molec. Sci. 2022 12(1), e1606
     doi.org/10.1002/wcms.1606

List of optional additional citations

  1. Neese, F.
     Approximate second-order SCF convergence for spin unrestricted wavefunctions
     Chem. Phys. Lett. 2000 325(1-3), 93-98
     doi.org/10.1016/s0009-2614(00)00662-x

Timings for individual modules:

Sum of individual times          ...        1.266 sec (=   0.021 min)
Geometry relaxation              ...        0.256 sec (=   0.004 min)  20.2 %
XTB module                       ...        1.010 sec (=   0.017 min)  79.8 %
                             ****ORCA TERMINATED NORMALLY****
TOTAL RUN TIME: 0 days 0 hours 0 minutes 2 seconds 52 msec
