
                                 *****************
                                 * O   R   C   A *
                                 *****************

                                            #,                                       
                                            ###                                      
                                            ####                                     
                                            #####                                    
                                            ######                                   
                                           ########,                                 
                                     ,,################,,,,,                         
                               ,,#################################,,                 
                          ,,##########################################,,             
                       ,#########################################, ''#####,          
                    ,#############################################,,   '####,        
                  ,##################################################,,,,####,       
                ,###########''''           ''''###############################       
              ,#####''   ,,,,##########,,,,          '''####'''          '####       
            ,##' ,,,,###########################,,,                        '##       
           ' ,,###''''                  '''############,,,                           
         ,,##''                                '''############,,,,        ,,,,,,###''
      ,#''                                            '''#######################'''  
     '                                                          ''''####''''         
             ,#######,   #######,   ,#######,      ##                                
            ,#'     '#,  ##    ##  ,#'     '#,    #''#        ,####,    ,#,          
            ##       ##  ##   ,#'  ##            #'  '#       #'       ,# #          
            ##       ##  #######   ##           ,######,      #####,      #          
            '#,     ,#'  ##    ##  '#,     ,#' ,#      #,     #,   #      #          
             '#######'   ##     ##  '#######'  #'      '#     '####' #    #          



                #########################################################
                #                        -***-                          #
                #          Department of theory and spectroscopy        #
                #                                                       #
                #                      Frank Neese                      #
                #                                                       #
                #     Directorship, Architecture, Infrastructure        #
                #                    SHARK, DRIVERS                     #
                #        Core code/Algorithms in most modules           #
                #                                                       #
                #        Max Planck Institute fuer Kohlenforschung      #
                #                Kaiser Wilhelm Platz 1                 #
                #                 D-45470 Muelheim/Ruhr                 #
                #                      Germany                          #
                #                                                       #
                #                  All rights reserved                  #
                #                        -***-                          #
                #########################################################


                         Program Version 6.1.0  -  RELEASE   -
                                (GIT: $679e74b$)
                          ($2025-06-10 18:02:51 +0200$)


 With contributions from (in alphabetic order):
[Max-Planck-Institut fuer Kohlenforschung]                               
  Daniel Aravena         : Magnetic Suceptibility                        
  Michael Atanasov       : Ab Initio Ligand Field Theory (pilot matlab implementation)
  Alexander A. Auer      : GIAO ZORA, VPT2 properties, NMR spectrum      
  Ute Becker             : All parallelization in ORCA, NUMFREQ, NUMCALC 
  Giovanni Bistoni       : ED, misc. LED, open-shell LED, HFLD           
  Dmytro Bykov           : pre 5.0 version of the SCF Hessian            
  Marcos Casanova-Páez   : Triplet and SCS-CIS(D). UHF-(DLPNO)-IP/EA/STEOM-CCSD. UHF-CVS-IP/STEOM-CCSD   
  Vijay G. Chilkuri      : MRCI spin determinant printing, contributions to CSF-ICE 
  Pauline Colinet        : FMM embedding                                 
  Dipayan Datta          : RHF DLPNO-CCSD density                        
  Achintya Kumar Dutta   : EOM-CC, STEOM-CC                              
  Nicolas Foglia         : Exact transition moments, OPA infrastructure, MCD improvements    
  Dmitry Ganyushin       : Spin-Orbit,Spin-Spin,Magnetic field MRCI      
  Miquel Garcia-Rates    : C-PCM and meta-GGA Hessian, CCSD/C-PCM, Gaussian charge scheme 
  Tiago L. C. Gouveia    : GS-ROHF, GS-ROCIS                             
  Yang Guo               : DLPNO-NEVPT2, F12-NEVPT2, CIM, IAO-localization        
  Andreas Hansen         : Spin unrestricted coupled pair/coupled cluster methods 
  Ingolf Harden          : AUTO-CI MPn and infrastructure                
  Benjamin Helmich-Paris : MC-RPA, TRAH-(SCF,CASSCF), AVAS, COSX integrals, SCF dyn. polar., MC-PDFT, srDFT 
  Lee Huntington         : MR-EOM, pCC                                   
  Robert Izsak           : Overlap fitted RIJCOSX, COSX-SCS-MP3, EOM     
  Riya Kayal             : Wick's Theorem for AUTO-CI, AUTO-CI UHF-CCSDT 
  Emily Kempfer          : AUTO-CI RHF CISDT and CCSDT, approximate NEVPT4
  Christian Kollmar      : KDIIS, OOCD, Brueckner-CCSD(T), CCSD density, CASPT2, CASPT2-K, improved NEVPT2 
  Axel Koslowski         : Symmetry handling                             
  Simone Kossmann        : meta-GGA functionals, TD-DFT gradient, OOMP2, (MP2 Hessian; deprecated post 5.0) 
  Lucas Lang             : DCDCAS, Hyperfine gauge corrections, ICE-SOC+SSC
  Marvin Lechner         : AUTO-CI (C++ implementation), FIC-MRCC        
  Spencer Leger          : CASSCF response                               
  Dagmar Lenk            : GEPOL surface, SMD, ORCA-2-JSON               
  Dimitrios Liakos       : Extrapolation schemes; Compound Job, Property file
  Dimitrios Manganas     : Further ROCIS development; embedding schemes. LFT, Crystal Embedding 
  Dimitrios Pantazis     : SARC Basis sets                               
  Anastasios Papadopoulos: AUTO-CI, single reference methods and gradients 
  Taras Petrenko         : pre 6.0 DFT Hessian and TD-DFT gradient,  ECA, NRVS 
  Petra Pikulova         : Analytic Raman intensities                    
  Peter Pinski           : DLPNO-MP2, DLPNO-MP2 Gradient                 
  Shashank Vittal Rao    : ES-AILFT, MagRelax                            
  Christoph Reimann      : Effective Core Potentials                     
  Marius Retegan         : Local ZFS, SOC                                
  Christoph Riplinger    : Optimizer, TS searches, QM/MM, DLPNO-CCSD(T), (RO)-DLPNO pert. Triples 
  Michael Roemelt        : Original ROCIS implementation, recursive CI coupling coefficients
  Masaaki Saitow         : Open-shell DLPNO-CCSD energy and density      
  Barbara Sandhoefer     : DKH picture change effects                    
  Yorick L. A. Schmerwitz: GMF and freeze-and-release deltaSCF, NEB S-IDPP initial path                    
  Kantharuban Sivalingam : CASSCF convergence/infrastructure, NEVPT2, NEVPT3, NEVPT4(SD), FIC-MRCI and CEPA variants
  Bernardo de Souza      : ESD, SOC TD-DFT                               
  Georgi L. Stoychev     : AutoAux, RI-MP2 NMR, DLPNO-MP2 response, X2C  
  Van Anh Tran           : RI-MP2 g-tensors                              
  Willem Van den Heuvel  : Paramagnetic NMR                              
  Zikuan Wang            : NOTCH, Electric field optimization            
  Frank Wennmohs         : Technical directorship and infrastructure     
  Hang Xu                : AUTO-CI-Response properties                   
                                                                         
[FACCTs GmbH]                                                            
  Markus Bursch, Nicolas Foglia, Miquel Garcia-Rates, Ingolf Harden, Hagen Neugebauer, Anastasios Papadopoulos, 
  Christoph Riplinger, Bernardo de Souza, Georgi L. Stoychev                                                    
                                                                 
  APM, various basis sets, CI-OPT, improved COSX, DLPNO-Multilevel,           
  DOCKER, DRACO, updates on ESD, Fragmentator, GOAT, IRC, LR-CPCM, L-BFGS, MBIS, meta-GGA TD-DFT gradient, ML-optimized integration grids, 
  MM, NACMEs, nearIR, NEB, NEB-TS, NL-DFT gradient (VV10), 2- and 3-layer-ONIOM, interface openCOSMO-RS, QMMM,   
  Crystal-QMMM, RESP, rigid body optimization, SF, symmetry and pop. for TD-DFT, various functionals, SOLVATOR                                   
                                                                         
[Other institutions]                                                     
  V. Asgeirsson          : NEB                                           
  Christoph Bannwarth    : sTDA-DFT, sTD-DFT, PBEh-3c, B97-3c, D3        
  Giovanni Bistoni       : ETS/NOCV, ADLD/ADEX, COVALED                  
  Martin Brehm           : Molecular dynamics                            
  Ronald Cardenas        : ETS/NOCV                                      
  Martina Colucci        : COVALED                                       
  Sebastian Ehlert       : rSCAN, r2SCAN, r2SCAN-3c, D4, dhf basis sets  
  Marvin Friede          : D4 for Fr, Ra, Ac-Lr                          
  Lars Goerigk           : TD-DFT with DH, B97 family of functionals     
  Stefan Grimme          : VdW corrections, initial TS optimization, DFT functionals, gCP, sTDA/sTD-DF 
  Waldemar Hujo          : DFT-NL                                        
  H. Jonsson             : NEB                                           
  Holger Kruse           : gCP                                           
  Marcel Mueller         : wB97X-3c, vDZP basis set                      
  Hagen Neugebauer       : wr2SCAN, Native XTB                           
  Gianluca Regni         : ADLD/ADEX                                     
  Tobias Risthaus        : pre 6.0 range-separated hybrid DFT and stability analysis
  Lukas Wittmann         : regularized MP2, r2SCAN double-hybrids, wr2SCAN        
                                                                         
We gratefully acknowledge several colleagues who have allowed us to      
interface, adapt or use parts of their codes:                            
  Ed Valeev, F. Pavosevic, A. Kumar             : LibInt (2-el integral package), F12 methods 
  Garnet Chan, S. Sharma, J. Yang, R. Olivares  : DMRG                   
  Ulf Ekstrom                                   : XCFun DFT Library      
  Mihaly Kallay                                 : mrcc  (arbitrary order and MRCC methods)
  Frank Weinhold                                : gennbo (NPA and NBO analysis)           
  Simon Mueller                                 : openCOSMO-RS                            
  Christopher J. Cramer and Donald G. Truhlar   : smd solvation model                     
  S Lehtola, MJT Oliveira, MAL Marques          : LibXC Library                           
  Liviu Ungur et al                             : ANISO software                          


 Your calculation uses the libint2 library for the computation of 2-el integrals
 For citations please refer to: http://libint.valeyev.net

 Your ORCA version has been built with support for libXC version: 7.0.0
 For citations please refer to: https://libxc.gitlab.io

 This ORCA versions uses:
   CBLAS   interface :  Fast vector & matrix operations
   LAPACKE interface :  Fast linear algebra routines
   SCALAPACK package :  Parallel linear algebra routines
   Shared memory     :  Shared parallel matrices
   BLAS/LAPACK       :  OpenBLAS 0.3.29  USE64BITINT DYNAMIC_ARCH NO_AFFINITY SkylakeX SINGLE_THREADED
        Core in use  :  SkylakeX
   Copyright (c) 2011-2014, The OpenBLAS Project


  ***********************************
  * Starting time: Thu Nov 13 17:51:01 2025
  * Host name:     glutamate
  * Process ID:    576295
  * Working dir.:  /home/mchrnwsk/prometheozyme
  ***********************************

Your calculation utilizes the semiempirical GFN2-xTB method
Please cite in your paper:
Bannwarth, C.; Ehlert S.; Grimme, S. J. Chem. Theory Comput. 2019, 15, 1652.
   

================================================================================

================================================================================
                                        WARNINGS
                       Please study these warnings very carefully!
================================================================================


WARNING: Geometry Optimization
  ===> : Switching off AutoStart
         For restart on a previous wavefunction, please use MOREAD

WARNING: Found dipole moment calculation with XTB calculation
  ===> : Switching off dipole moment calculation


================================================================================
                                       INPUT FILE
================================================================================
NAME = /home/mchrnwsk/prometheozyme/ingredients/lmo-mandalate/optimised/adduct_right_p/opt.inp
|  1> !XTB2 OPT
|  2> !PAL16
|  3> * xyz -1 1 /home/mchrnwsk/prometheozyme/ingredients/lmo-mandalate/optimised/adduct_left_d/adduct_d.xyz
|  4> O         -1.60696        1.01130       -2.58647
|  5> C         -1.35312        0.41549       -1.31541
|  6> C         -0.83830        2.79434        0.51376
|  7> C         -2.08086        2.72150        2.97204
|  8> C         -4.41490        1.12646        3.41189
|  9> C          0.91637        4.39316        1.31377
| 10> C         -0.45249        4.35866        3.96207
| 11> C         -0.31704        3.57137        1.55932
| 12> C         -0.94893        3.53754        2.80628
| 13> O         -3.85389       -0.26764       -2.45980
| 14> O         -7.31937       -1.15473        0.26029
| 15> C         -4.30847       -0.22755       -1.31398
| 16> C         -6.18901       -0.66692        0.18883
| 17> C         -1.88773        1.87710        0.69522
| 18> C         -2.57584        1.88990        1.94381
| 19> N         -3.74110        1.07353        2.11140
| 20> C         -3.58373        0.41460       -0.16989
| 21> C         -4.31270        0.44423        0.97497
| 22> N         -5.53601       -0.74729       -1.01839
| 23> N         -5.55624       -0.06314        1.19159
| 24> N         -2.29617        0.97299       -0.32071
| 25> H         -2.53425        0.74430       -2.75445
| 26> H         -6.06080       -1.16372       -1.76491
| 27> H         -5.21720        0.38938        3.52328
| 28> H         -3.71457        0.89738        4.22354
| 29> H         -4.85786        2.11525        3.57863
| 30> H         -0.39814        2.90481       -0.47123
| 31> H         -2.57913        2.74488        3.93499
| 32> H          0.69742        5.45890        1.42327
| 33> H          1.70537        4.10663        2.01762
| 34> H          1.31481        4.23234        0.30610
| 35> H          0.55373        4.03839        4.25040
| 36> H         -0.43540        5.42013        3.69539
| 37> H         -1.09783        4.25232        4.84042
| 38> H          0.04085       -0.66411        0.81340
| 39> C          0.69269       -0.12523        0.12716
| 40> C          0.15181        0.48018       -1.02013
| 41> C          1.03229        1.17345       -1.87738
| 42> H          0.64747        1.65132       -2.77689
| 43> C          2.38518        1.31644       -1.56758
| 44> H          3.02932        1.89226       -2.22576
| 45> C          2.89282        0.74306       -0.40655
| 46> H          3.94109        0.87091       -0.15317
| 47> C          2.05122        0.01402        0.43376
| 48> H          2.44624       -0.42819        1.34418
| 49> H         -1.54782       -0.66163       -1.42448
| 50> **                         ****END OF INPUT****
================================================================================

                       *****************************
                       * Geometry Optimization Run *
                       *****************************

Geometry optimization settings:
Update method            Update   .... BFGS
Choice of coordinates    CoordSys .... (2022) Redundant Internals
Initial Hessian          InHess   .... Almloef's Model
Max. no of cycles        MaxIter  .... 138

Convergence Tolerances:
Energy Change            TolE     ....  5.0000e-06 Eh
Max. Gradient            TolMAXG  ....  3.0000e-04 Eh/bohr
RMS Gradient             TolRMSG  ....  1.0000e-04 Eh/bohr
Max. Displacement        TolMAXD  ....  4.0000e-03 bohr
RMS Displacement         TolRMSD  ....  2.0000e-03 bohr
Strict Convergence                .... False

------------------------------------------------------------------------------
                        ORCA OPTIMIZATION COORDINATE SETUP
------------------------------------------------------------------------------

The optimization will be done in redundant internal coordinates (2022)
Making redundant internal coordinates   ...  (2022 redundants) done
Evaluating the initial hessian          ...  (Almloef) done
Evaluating the coordinates              ...  done
Calculating the B-matrix                .... done
Calculating the G-matrix                .... done
The number of degrees of freedom        ....  246

    -----------------------------------------------------------------
                    Redundant Internal Coordinates


    -----------------------------------------------------------------
         Definition                    Initial Value    Approx d2E/dq
    -----------------------------------------------------------------
      1. B(C   1,O   0)                  1.4265         0.489302   
      2. B(C   7,C   5)                  1.5023         0.413577   
      3. B(C   7,C   2)                  1.4031         0.595445   
      4. B(C   8,C   6)                  1.5022         0.413775   
      5. B(C   8,C   3)                  1.4052         0.590806   
      6. B(C   8,C   7)                  1.3983         0.605957   
      7. B(C  11,O   9)                  1.2334         0.994946   
      8. B(C  12,O  10)                  1.2332         0.995502   
      9. B(C  13,C   2)                  1.4055         0.590113   
     10. B(C  14,C  13)                  1.4257         0.547990   
     11. B(C  14,C   3)                  1.4120         0.576230   
     12. B(N  15,C  14)                  1.4326         0.478510   
     13. B(N  15,C   4)                  1.4656         0.423845   
     14. B(C  16,C  11)                  1.4988         0.418869   
     15. B(C  17,N  15)                  1.4192         0.502618   
     16. B(C  17,C  16)                  1.3576         0.703863   
     17. B(N  18,C  12)                  1.3749         0.591596   
     18. B(N  18,C  11)                  1.3654         0.612491   
     19. B(N  19,C  17)                  1.3604         0.623835   
     20. B(N  19,C  12)                  1.3306         0.696076   
     21. B(N  20,C  16)                  1.4115         0.517082   
     22. B(N  20,C  13)                  1.4200         0.501233   
     23. B(N  20,C   1)                  1.4797         0.402466   
     24. B(H  21,O   9)                  1.6889         0.035735   
     25. B(H  21,O   0)                  0.9795         0.484054   
     26. B(H  22,N  18)                  1.0031         0.443897   
     27. B(H  23,C   4)                  1.0952         0.353336   
     28. B(H  24,C   4)                  1.0962         0.351955   
     29. B(H  25,C   4)                  1.0962         0.351951   
     30. B(H  26,C   2)                  1.0845         0.367444   
     31. B(H  27,C   3)                  1.0845         0.367480   
     32. B(H  28,C   5)                  1.0935         0.355506   
     33. B(H  29,C   5)                  1.0955         0.352953   
     34. B(H  30,C   5)                  1.0955         0.352959   
     35. B(H  31,C   6)                  1.0946         0.354044   
     36. B(H  32,C   6)                  1.0946         0.354078   
     37. B(H  33,C   6)                  1.0951         0.353400   
     38. B(C  35,H  34)                  1.0891         0.361248   
     39. B(C  36,C  35)                  1.4055         0.590278   
     40. B(C  36,C   1)                  1.5350         0.366791   
     41. B(C  37,C  36)                  1.4109         0.578540   
     42. B(H  38,C  37)                  1.0888         0.361643   
     43. B(C  39,C  37)                  1.3953         0.612853   
     44. B(H  40,C  39)                  1.0861         0.365251   
     45. B(C  41,C  39)                  1.3908         0.622857   
     46. B(H  42,H  30)                  4.2904         0.010000   
     47. B(H  42,C  41)                  1.0860         0.365418   
     48. B(C  43,C  41)                  1.3950         0.613517   
     49. B(C  43,C  35)                  1.3996         0.603053   
     50. B(H  44,C  43)                  1.0865         0.364777   
     51. B(H  45,C   1)                  1.1000         0.347116   
     52. A(C   1,O   0,H  21)          101.9710         0.351169   
     53. A(O   0,C   1,N  20)          109.1591         0.380729   
     54. A(N  20,C   1,C  36)          118.6622         0.364575   
     55. A(N  20,C   1,H  45)          108.8307         0.324386   
     56. A(O   0,C   1,C  36)          109.1629         0.377034   
     57. A(O   0,C   1,H  45)          106.8060         0.335028   
     58. A(C  36,C   1,H  45)          103.5254         0.321405   
     59. A(C  13,C   2,H  26)          119.1279         0.351170   
     60. A(C   7,C   2,H  26)          118.0090         0.351704   
     61. A(C   7,C   2,C  13)          122.8591         0.427122   
     62. A(C  14,C   3,H  27)          119.8829         0.349766   
     63. A(C   8,C   3,H  27)          117.5369         0.351245   
     64. A(C   8,C   3,C  14)          122.5802         0.424710   
     65. A(H  24,C   4,H  25)          109.5128         0.288759   
     66. A(N  15,C   4,H  25)          110.6896         0.327907   
     67. A(H  23,C   4,H  24)          104.5997         0.288937   
     68. A(H  23,C   4,H  25)          107.1923         0.288936   
     69. A(N  15,C   4,H  24)          110.8380         0.327907   
     70. A(N  15,C   4,H  23)          113.7495         0.328119   
     71. A(C   7,C   5,H  30)          111.6332         0.328710   
     72. A(C   7,C   5,H  29)          110.0739         0.328710   
     73. A(H  28,C   5,H  29)          109.5602         0.289343   
     74. A(H  28,C   5,H  30)          107.9401         0.289343   
     75. A(H  29,C   5,H  30)          106.8976         0.289017   
     76. A(C   7,C   5,H  28)          110.6327         0.329101   
     77. A(H  32,C   6,H  33)          107.3842         0.289218   
     78. A(C   8,C   6,H  32)          110.3519         0.328908   
     79. A(C   8,C   6,H  31)          110.2750         0.328903   
     80. A(C   8,C   6,H  33)          111.6717         0.328804   
     81. A(H  31,C   6,H  32)          109.4848         0.289300   
     82. A(H  31,C   6,H  33)          107.5791         0.289213   
     83. A(C   2,C   7,C   8)          118.8969         0.429156   
     84. A(C   2,C   7,C   5)          119.0877         0.400984   
     85. A(C   5,C   7,C   8)          122.0049         0.402222   
     86. A(C   6,C   8,C   7)          121.5709         0.402256   
     87. A(C   3,C   8,C   7)          118.8973         0.428554   
     88. A(C   3,C   8,C   6)          119.5300         0.400466   
     89. A(O   9,C  11,C  16)          123.0144         0.437543   
     90. A(C  16,C  11,N  18)          115.6289         0.401297   
     91. A(O   9,C  11,N  18)          121.3392         0.465720   
     92. A(N  18,C  12,N  19)          117.5411         0.433741   
     93. A(O  10,C  12,N  19)          124.8704         0.476836   
     94. A(O  10,C  12,N  18)          117.5878         0.462820   
     95. A(C  14,C  13,N  20)          119.5683         0.406158   
     96. A(C   2,C  13,N  20)          122.5406         0.411519   
     97. A(C   2,C  13,C  14)          117.8764         0.420826   
     98. A(C  13,C  14,N  15)          119.3345         0.402845   
     99. A(C   3,C  14,N  15)          122.3811         0.406434   
    100. A(C   3,C  14,C  13)          118.2831         0.419042   
    101. A(C   4,N  15,C  17)          122.7767         0.385966   
    102. A(C   4,N  15,C  14)          117.2040         0.382680   
    103. A(C  14,N  15,C  17)          119.1171         0.394233   
    104. A(C  11,C  16,C  17)          113.1678         0.413956   
    105. A(C  17,C  16,N  20)          124.8403         0.427019   
    106. A(C  11,C  16,N  20)          121.9377         0.389554   
    107. A(C  16,C  17,N  19)          128.0958         0.441688   
    108. A(N  15,C  17,N  19)          113.9550         0.413116   
    109. A(N  15,C  17,C  16)          117.9492         0.424856   
    110. A(C  11,N  18,C  12)          126.5007         0.423902   
    111. A(C  12,N  18,H  22)          115.4215         0.357368   
    112. A(C  11,N  18,H  22)          117.8576         0.359484   
    113. A(C  12,N  19,C  17)          118.9426         0.437906   
    114. A(C   1,N  20,C  13)          122.5144         0.382324   
    115. A(C  13,N  20,C  16)          115.9644         0.399442   
    116. A(C   1,N  20,C  16)          120.2738         0.384398   
    117. A(H  34,C  35,C  36)          119.8109         0.350179   
    118. A(C  36,C  35,C  43)          120.6303         0.428117   
    119. A(H  34,C  35,C  43)          119.4798         0.351448   
    120. A(C  35,C  36,C  37)          117.8697         0.424946   
    121. A(C   1,C  36,C  37)          121.0409         0.390648   
    122. A(C   1,C  36,C  35)          121.0763         0.392022   
    123. A(H  38,C  37,C  39)          118.7602         0.352472   
    124. A(C  36,C  37,C  39)          121.3686         0.427812   
    125. A(C  36,C  37,H  38)          119.8034         0.349058   
    126. A(H  40,C  39,C  41)          120.5277         0.354034   
    127. A(C  37,C  39,C  41)          119.8021         0.433520   
    128. A(C  37,C  39,H  40)          119.6586         0.353065   
    129. A(H  42,C  41,C  43)          120.2205         0.353157   
    130. A(C  39,C  41,C  43)          119.8748         0.433604   
    131. A(C  39,C  41,H  42)          119.9029         0.354062   
    132. A(C  41,C  43,H  44)          119.8766         0.353052   
    133. A(C  35,C  43,H  44)          119.7331         0.352026   
    134. A(C  35,C  43,C  41)          120.3733         0.431093   
    135. D(N  20,C   1,O   0,H  21)    -60.6132         0.018904   
    136. D(H  45,C   1,O   0,H  21)     56.8954         0.018904   
    137. D(C  36,C   1,O   0,H  21)    168.2169         0.018904   
    138. D(C   8,C   7,C   2,C  13)     -6.6301         0.024422   
    139. D(C   2,C   7,C   5,H  29)   -121.9755         0.012660   
    140. D(C   8,C   7,C   2,H  26)    174.1022         0.024422   
    141. D(C   2,C   7,C   5,H  30)     -3.4310         0.012660   
    142. D(C   8,C   7,C   5,H  28)    -64.3961         0.012660   
    143. D(C   5,C   7,C   2,H  26)     -7.0508         0.024422   
    144. D(C   5,C   7,C   2,C  13)    172.2169         0.024422   
    145. D(C   2,C   7,C   5,H  28)    116.7943         0.012660   
    146. D(C   8,C   7,C   5,H  29)     56.8341         0.012660   
    147. D(C   7,C   8,C   3,C  14)      2.6586         0.024024   
    148. D(C   6,C   8,C   3,C  14)   -177.8225         0.024024   
    149. D(C   6,C   8,C   3,H  27)      2.1213         0.024024   
    150. D(C   6,C   8,C   7,C   5)      1.9841         0.025340   
    151. D(C   7,C   8,C   6,H  31)    -63.6404         0.012672   
    152. D(C   3,C   8,C   7,C   2)      0.3045         0.025340   
    153. D(C   3,C   8,C   7,C   5)   -178.5073         0.025340   
    154. D(C   7,C   8,C   6,H  32)     57.4437         0.012672   
    155. D(C   3,C   8,C   6,H  32)   -122.0619         0.012672   
    156. D(C   3,C   8,C   6,H  33)     -2.7009         0.012672   
    157. D(C   7,C   8,C   3,H  27)   -177.3976         0.024024   
    158. D(C   3,C   8,C   6,H  31)    116.8540         0.012672   
    159. D(C   6,C   8,C   7,C   2)   -179.2042         0.025340   
    160. D(N  20,C  13,C   2,H  26)      7.5392         0.023965   
    161. D(N  20,C  13,C   2,C   7)   -171.7206         0.023965   
    162. D(C  14,C  13,C   2,H  26)   -171.0607         0.023965   
    163. D(C  14,C  13,C   2,C   7)      9.6794         0.023965   
    164. D(C  13,C  14,C   3,H  27)   -179.4730         0.022799   
    165. D(C  13,C  14,C   3,C   8)      0.4694         0.022799   
    166. D(N  15,C  14,C  13,N  20)     -5.4299         0.020538   
    167. D(N  15,C  14,C  13,C   2)    173.2131         0.020538   
    168. D(C   3,C  14,C  13,N  20)    174.9705         0.020538   
    169. D(C   3,C  14,C  13,C   2)     -6.3865         0.020538   
    170. D(N  15,C  14,C   3,H  27)      0.9403         0.022799   
    171. D(N  15,C  14,C   3,C   8)   -179.1172         0.022799   
    172. D(C  17,N  15,C  14,C  13)    -10.3381         0.018060   
    173. D(C  17,N  15,C  14,C   3)    169.2443         0.018060   
    174. D(C   4,N  15,C  14,C  13)   -179.7726         0.018060   
    175. D(C   4,N  15,C  14,C   3)     -0.1901         0.018060   
    176. D(C  17,N  15,C   4,H  24)    135.9663         0.015317   
    177. D(C  14,N  15,C   4,H  25)     66.7038         0.015317   
    178. D(C  14,N  15,C   4,H  24)    -55.0170         0.015317   
    179. D(C  14,N  15,C   4,H  23)   -172.5418         0.015317   
    180. D(C  17,N  15,C   4,H  23)     18.4415         0.015317   
    181. D(N  20,C  16,C  11,N  18)    178.8565         0.012010   
    182. D(N  20,C  16,C  11,O   9)     -2.6485         0.012010   
    183. D(C  17,C  16,C  11,N  18)     -3.6992         0.012010   
    184. D(C  17,C  16,C  11,O   9)    174.7957         0.012010   
    185. D(N  19,C  17,C  16,N  20)    179.5928         0.034925   
    186. D(N  19,C  17,C  16,C  11)      2.2354         0.034925   
    187. D(N  15,C  17,C  16,N  20)     -0.4491         0.034925   
    188. D(N  15,C  17,C  16,C  11)   -177.8065         0.034925   
    189. D(N  19,C  17,N  15,C  14)   -166.7381         0.019979   
    190. D(N  19,C  17,N  15,C   4)      2.0780         0.019979   
    191. D(C  16,C  17,N  15,C  14)     13.2980         0.019979   
    192. D(C  16,C  17,N  15,C   4)   -177.8859         0.019979   
    193. D(C  11,N  18,C  12,O  10)    177.3572         0.028145   
    194. D(H  22,N  18,C  11,C  16)    178.4285         0.030320   
    195. D(H  22,N  18,C  11,O   9)     -0.0939         0.030320   
    196. D(C  12,N  18,C  11,C  16)      4.0901         0.030320   
    197. D(C  12,N  18,C  11,O   9)   -174.4322         0.030320   
    198. D(H  22,N  18,C  12,N  19)   -176.8117         0.028145   
    199. D(H  22,N  18,C  12,O  10)      2.8990         0.028145   
    200. D(C  11,N  18,C  12,N  19)     -2.3534         0.028145   
    201. D(C  12,N  19,C  17,C  16)     -0.5145         0.028578   
    202. D(C  12,N  19,C  17,N  15)    179.5261         0.028578   
    203. D(C  17,N  19,C  12,N  18)      0.2977         0.036245   
    204. D(C  17,N  19,C  12,O  10)   -179.3897         0.036245   
    205. D(C  13,N  20,C  16,C  17)    -14.9538         0.021188   
    206. D(C  13,N  20,C  16,C  11)    162.1832         0.021188   
    207. D(C   1,N  20,C  16,C  17)    152.6056         0.021188   
    208. D(C   1,N  20,C  16,C  11)    -30.2575         0.021188   
    209. D(C  16,N  20,C  13,C  14)     17.3671         0.019865   
    210. D(C  16,N  20,C  13,C   2)   -161.2100         0.019865   
    211. D(C   1,N  20,C  13,C  14)   -149.8868         0.019865   
    212. D(C   1,N  20,C  13,C   2)     31.5361         0.019865   
    213. D(C  16,N  20,C   1,C  36)   -148.8646         0.013826   
    214. D(C  16,N  20,C   1,O   0)     85.2653         0.013826   
    215. D(C  13,N  20,C   1,H  45)    135.7629         0.013826   
    216. D(C  13,N  20,C   1,C  36)     17.8568         0.013826   
    217. D(C  13,N  20,C   1,O   0)   -108.0133         0.013826   
    218. D(C  37,C  36,C  35,C  43)      2.9361         0.023979   
    219. D(C   1,C  36,C  35,C  43)   -175.7589         0.023979   
    220. D(C   1,C  36,C  35,H  34)      0.9914         0.023979   
    221. D(C  37,C  36,C   1,N  20)   -119.8046         0.010087   
    222. D(C  37,C  36,C   1,O   0)      6.0636         0.010087   
    223. D(C  35,C  36,C   1,H  45)    -61.8037         0.010087   
    224. D(C  37,C  36,C  35,H  34)    179.6863         0.023979   
    225. D(C  35,C  36,C   1,N  20)     58.8489         0.010087   
    226. D(C  35,C  36,C   1,O   0)   -175.2829         0.010087   
    227. D(C  39,C  37,C  36,C  35)     -3.2424         0.022990   
    228. D(C  39,C  37,C  36,C   1)    175.4531         0.022990   
    229. D(H  38,C  37,C  36,C  35)    179.7884         0.022990   
    230. D(H  38,C  37,C  36,C   1)     -1.5161         0.022990   
    231. D(C  41,C  39,C  37,H  38)    178.4085         0.025954   
    232. D(C  41,C  39,C  37,C  36)      1.4085         0.025954   
    233. D(H  40,C  39,C  37,H  38)     -0.3580         0.025954   
    234. D(H  40,C  39,C  37,C  36)   -177.3581         0.025954   
    235. D(C  43,C  41,C  39,H  40)    179.5553         0.026860   
    236. D(C  43,C  41,C  39,C  37)      0.7996         0.026860   
    237. D(H  42,C  41,C  39,H  40)      0.0359         0.026860   
    238. D(H  42,C  41,C  39,C  37)   -178.7197         0.026860   
    239. D(H  44,C  43,C  41,H  42)     -0.0663         0.026013   
    240. D(H  44,C  43,C  41,C  39)   -179.5841         0.026013   
    241. D(C  35,C  43,C  41,H  42)    178.4330         0.026013   
    242. D(C  35,C  43,C  41,C  39)     -1.0848         0.026013   
    243. D(H  44,C  43,C  35,C  36)    177.6665         0.025085   
    244. D(H  44,C  43,C  35,H  34)      0.9055         0.025085   
    245. D(C  41,C  43,C  35,C  36)     -0.8350         0.025085   
    246. D(C  41,C  43,C  35,H  34)   -177.5959         0.025085   
    -----------------------------------------------------------------

Number of atoms                         .... 46
Number of degrees of freedom            .... 246


         *************************************************************
         *                GEOMETRY OPTIMIZATION CYCLE   1            *
         *************************************************************
---------------------------------
CARTESIAN COORDINATES (ANGSTROEM)
---------------------------------
  O    -1.606960    1.011300   -2.586470
  C    -1.353120    0.415490   -1.315410
  C    -0.838300    2.794340    0.513760
  C    -2.080860    2.721500    2.972040
  C    -4.414900    1.126460    3.411890
  C     0.916370    4.393160    1.313770
  C    -0.452490    4.358660    3.962070
  C    -0.317040    3.571370    1.559320
  C    -0.948930    3.537540    2.806280
  O    -3.853890   -0.267640   -2.459800
  O    -7.319370   -1.154730    0.260290
  C    -4.308470   -0.227550   -1.313980
  C    -6.189010   -0.666920    0.188830
  C    -1.887730    1.877100    0.695220
  C    -2.575840    1.889900    1.943810
  N    -3.741100    1.073530    2.111400
  C    -3.583730    0.414600   -0.169890
  C    -4.312700    0.444230    0.974970
  N    -5.536010   -0.747290   -1.018390
  N    -5.556240   -0.063140    1.191590
  N    -2.296170    0.972990   -0.320710
  H    -2.534250    0.744300   -2.754450
  H    -6.060800   -1.163720   -1.764910
  H    -5.217200    0.389380    3.523280
  H    -3.714570    0.897380    4.223540
  H    -4.857860    2.115250    3.578630
  H    -0.398140    2.904810   -0.471230
  H    -2.579130    2.744880    3.934990
  H     0.697420    5.458900    1.423270
  H     1.705370    4.106630    2.017620
  H     1.314810    4.232340    0.306100
  H     0.553730    4.038390    4.250400
  H    -0.435400    5.420130    3.695390
  H    -1.097830    4.252320    4.840420
  H     0.040850   -0.664110    0.813400
  C     0.692690   -0.125230    0.127160
  C     0.151810    0.480180   -1.020130
  C     1.032290    1.173450   -1.877380
  H     0.647470    1.651320   -2.776890
  C     2.385180    1.316440   -1.567580
  H     3.029320    1.892260   -2.225760
  C     2.892820    0.743060   -0.406550
  H     3.941090    0.870910   -0.153170
  C     2.051220    0.014020    0.433760
  H     2.446240   -0.428190    1.344180
  H    -1.547820   -0.661630   -1.424480

----------------------------
CARTESIAN COORDINATES (A.U.)
----------------------------
  NO LB    ZA    FRAG    MASS        X           Y           Z
   0 O   8.0000    0    15.999   -3.036714    1.911080   -4.887720
   1 C   6.0000    0    12.011   -2.557026    0.785162   -2.485765
   2 C   6.0000    0    12.011   -1.584157    5.280537    0.970866
   3 C   6.0000    0    12.011   -3.932256    5.142890    5.616342
   4 C   6.0000    0    12.011   -8.342952    2.128701    6.447538
   5 C   6.0000    0    12.011    1.731688    8.301869    2.482666
   6 C   6.0000    0    12.011   -0.855082    8.236674    7.487227
   7 C   6.0000    0    12.011   -0.599119    6.748911    2.946688
   8 C   6.0000    0    12.011   -1.793218    6.684982    5.303101
   9 O   8.0000    0    15.999   -7.282797   -0.505766   -4.648348
  10 O   8.0000    0    15.999  -13.831605   -2.182123    0.491877
  11 C   6.0000    0    12.011   -8.141828   -0.430007   -2.483062
  12 C   6.0000    0    12.011  -11.695534   -1.260296    0.356837
  13 C   6.0000    0    12.011   -3.567293    3.547205    1.313775
  14 C   6.0000    0    12.011   -4.867632    3.571393    3.673269
  15 N   7.0000    0    14.007   -7.069654    2.028678    3.989968
  16 C   6.0000    0    12.011   -6.772268    0.783480   -0.321046
  17 C   6.0000    0    12.011   -8.149822    0.839473    1.842426
  18 N   7.0000    0    14.007  -10.461543   -1.412173   -1.924478
  19 N   7.0000    0    14.007  -10.499772   -0.119317    2.251779
  20 N   7.0000    0    14.007   -4.339132    1.838685   -0.606054
  21 H   1.0000    0     1.008   -4.789038    1.406523   -5.205156
  22 H   1.0000    0     1.008  -11.453252   -2.199112   -3.335197
  23 H   1.0000    0     1.008   -9.859079    0.735822    6.658034
  24 H   1.0000    0     1.008   -7.019520    1.695802    7.981334
  25 H   1.0000    0     1.008   -9.180025    3.997243    6.762631
  26 H   1.0000    0     1.008   -0.752376    5.489295   -0.890496
  27 H   1.0000    0     1.008   -4.873849    5.187071    7.436053
  28 H   1.0000    0     1.008    1.317933   10.315826    2.689591
  29 H   1.0000    0     1.008    3.222682    7.760406    3.812749
  30 H   1.0000    0     1.008    2.484631    7.997964    0.578445
  31 H   1.0000    0     1.008    1.046398    7.631451    8.032092
  32 H   1.0000    0     1.008   -0.822787   10.242561    6.983275
  33 H   1.0000    0     1.008   -2.074598    8.035720    9.147068
  34 H   1.0000    0     1.008    0.077195   -1.254986    1.537103
  35 C   6.0000    0    12.011    1.308994   -0.236650    0.240298
  36 C   6.0000    0    12.011    0.286879    0.907409   -1.927766
  37 C   6.0000    0    12.011    1.950745    2.217499   -3.547734
  38 H   1.0000    0     1.008    1.223541    3.120543   -5.247562
  39 C   6.0000    0    12.011    4.507337    2.487711   -2.962297
  40 H   1.0000    0     1.008    5.724585    3.575853   -4.206077
  41 C   6.0000    0    12.011    5.466638    1.404180   -0.768268
  42 H   1.0000    0     1.008    7.447581    1.645781   -0.289449
  43 C   6.0000    0    12.011    3.876244    0.026494    0.819688
  44 H   1.0000    0     1.008    4.622724   -0.809162    2.540132
  45 H   1.0000    0     1.008   -2.924956   -1.250300   -2.691877

      -----------------------------------------------------------      
     |                   =====================                   |     
     |                           x T B                           |     
     |                   =====================                   |     
     |                         S. Grimme                         |     
     |          Mulliken Center for Theoretical Chemistry        |     
     |                    University of Bonn                     |     
      -----------------------------------------------------------      

   * xtb version 6.7.1 (edcfbbe) compiled by 'albert@albert-system' on 2024-07-22

   xtb is free software: you can redistribute it and/or modify it under
   the terms of the GNU Lesser General Public License as published by
   the Free Software Foundation, either version 3 of the License, or
   (at your option) any later version.
   
   xtb is distributed in the hope that it will be useful,
   but WITHOUT ANY WARRANTY; without even the implied warranty of
   MERCHANTABILITY or FITNESS FOR A PARTICULAR PURPOSE.  See the
   GNU Lesser General Public License for more details.
   
   Cite this work as:
   * C. Bannwarth, E. Caldeweyher, S. Ehlert, A. Hansen, P. Pracht,
     J. Seibert, S. Spicher, S. Grimme, WIREs Comput. Mol. Sci., 2020, 11,
     e01493. DOI: 10.1002/wcms.1493
   
   for GFN2-xTB:
   * C. Bannwarth, S. Ehlert and S. Grimme., J. Chem. Theory Comput., 2019,
     15, 1652-1671. DOI: 10.1021/acs.jctc.8b01176
   for GFN1-xTB:
   * S. Grimme, C. Bannwarth, P. Shushkov, J. Chem. Theory Comput., 2017,
     13, 1989-2009. DOI: 10.1021/acs.jctc.7b00118
   for GFN0-xTB:
   * P. Pracht, E. Caldeweyher, S. Ehlert, S. Grimme, ChemRxiv, 2019, preprint.
     DOI: 10.26434/chemrxiv.8326202.v1
   for GFN-FF:
   * S. Spicher and S. Grimme, Angew. Chem. Int. Ed., 2020, 59, 15665-15673.
     DOI: 10.1002/anie.202004239
   
   for ALPB and GBSA implicit solvation:
   * S. Ehlert, M. Stahn, S. Spicher, S. Grimme, J. Chem. Theory Comput.,
     2021, 17, 4250-4261. DOI: 10.1021/acs.jctc.1c00471
   
   for ddCOSMO and CPCM-X implicit solvation:
   * M. Stahn, S. Ehlert, S. Grimme, J. Phys. Chem. A,
     2023, XX, XXXX-XXXX. DOI: 10.1021/acs.jpca.3c04382
   
   for DFT-D4:
   * E. Caldeweyher, C. Bannwarth and S. Grimme, J. Chem. Phys., 2017,
     147, 034112. DOI: 10.1063/1.4993215
   * E. Caldeweyher, S. Ehlert, A. Hansen, H. Neugebauer, S. Spicher,
     C. Bannwarth and S. Grimme, J. Chem. Phys., 2019, 150, 154122.
     DOI: 10.1063/1.5090222
   * E. Caldeweyher, J.-M. Mewes, S. Ehlert and S. Grimme, Phys. Chem. Chem. Phys.
     2020, 22, 8499-8512. DOI: 10.1039/D0CP00502A
   
   for sTDA-xTB:
   * S. Grimme and C. Bannwarth, J. Chem. Phys., 2016, 145, 054103.
     DOI: 10.1063/1.4959605
   
   in the mass-spec context:
   * V. Asgeirsson, C. Bauer and S. Grimme, Chem. Sci., 2017, 8, 4879.
     DOI: 10.1039/c7sc00601b
   * J. Koopman and S. Grimme, ACS Omega 2019, 4, 12, 15120-15133.
     DOI: 10.1021/acsomega.9b02011
   
   for metadynamics refer to:
   * S. Grimme, J. Chem. Theory Comput., 2019, 155, 2847-2862
     DOI: 10.1021/acs.jctc.9b00143
   
   for SPH calculations refer to:
   * S. Spicher and S. Grimme, J. Chem. Theory Comput., 2021, 17, 1701-1714
     DOI: 10.1021/acs.jctc.0c01306
   
   for ONIOM refer to:
   * C. Plett, A. Katbashev, S. Ehlert, S. Grimme, M. Bursch,
     Phys. Chem. Chem. Phys., 2023, 25, 17860-17868. DOI: 10.1039/D3CP02178E
   
   for DIPRO refer to:
   * J. Kohn, N. Gildemeister, S. Grimme, D. Fazzi, A. Hansen,
     J. Chem. Phys., 2023, just accepted.
   
   for PTB refer to:
   * S. Grimme, M. Mueller, A. Hansen, J. Chem. Phys., 2023, 158, 124111.
     DOI: 10.1063/5.0137838
   
   with help from (in alphabetical order)
   P. Atkinson, C. Bannwarth, F. Bohle, G. Brandenburg, E. Caldeweyher
   M. Checinski, S. Dohm, S. Ehlert, S. Ehrlich, I. Gerasimov, C. Hölzer
   A. Katbashev, J. Kohn, J. Koopman, C. Lavigne, S. Lehtola, F. März, M. Müller,
   F. Musil, H. Neugebauer, J. Pisarek, C. Plett, P. Pracht, F. Pultar,
   J. Seibert, P. Shushkov, S. Spicher, M. Stahn, M. Steiner, T. Strunk,
   J. Stückrath, T. Rose, and J. Unsleber
   
 * started run on 2025/11/13 at 17:51:01.966     
   ID    Z sym.   atoms
    1    8 O      1, 10, 11
    2    6 C      2-9, 12-15, 17, 18, 36-38, 40, 42, 44
    3    7 N      16, 19-21
    4    1 H      22-35, 39, 41, 43, 45, 46

           -------------------------------------------------
          |                Calculation Setup                |
           -------------------------------------------------

          program call               : /home/mchrnwsk/orca_6_1_0/otool_xtb /home/mchrnwsk/prometheozyme/ingredients/lmo-mandalate/optimised/adduct_right_p/opt_XTB.xyz --grad -c -1 -u 0 -P 16 --namespace /home/mchrnwsk/prometheozyme/ingredients/lmo-mandalate/optimised/adduct_right_p/opt --input /home/mchrnwsk/prometheozyme/ingredients/lmo-mandalate/optimised/adduct_right_p/opt_XTB.input.tmp --acc 0.200000
          calculation namespace      : /home/mchrnwsk/prometheozyme/ingredients/lmo-mandalate/optimised/adduct_right_p/opt
          coordinate file            : /home/mchrnwsk/prometheozyme/ingredients/lmo-mandalate/optimised/adduct_right_p/opt_XTB.xyz
          omp threads                :                    16


           -------------------------------------------------
          |                 G F N 2 - x T B                 |
           -------------------------------------------------

        Reference                      10.1021/acs.jctc.8b01176
      * Hamiltonian:
        H0-scaling (s, p, d)           1.850000    2.230000    2.230000
        zeta-weighting                 0.500000
      * Dispersion:
        s8                             2.700000
        a1                             0.520000
        a2                             5.000000
        s9                             5.000000
      * Repulsion:
        kExp                           1.500000    1.000000
        rExp                           1.000000
      * Coulomb:
        alpha                          2.000000
        third order                    shell-resolved
        anisotropic                    true
        a3                             3.000000
        a5                             4.000000
        cn-shift                       1.200000
        cn-exp                         4.000000
        max-rad                        5.000000


          ...................................................
          :                      SETUP                      :
          :.................................................:
          :  # basis functions                 127          :
          :  # atomic orbitals                 127          :
          :  # shells                           73          :
          :  # electrons                       138          :
          :  max. iterations                   250          :
          :  Hamiltonian                  GFN2-xTB          :
          :  restarted?                      false          :
          :  GBSA solvation                  false          :
          :  PC potential                    false          :
          :  electronic temp.          300.0000000     K    :
          :  accuracy                    0.2000000          :
          :  -> integral cutoff          0.3198970E+02      :
          :  -> integral neglect         0.2000000E-08      :
          :  -> SCF convergence          0.2000000E-06 Eh   :
          :  -> wf. convergence          0.2000000E-04 e    :
          :  Broyden damping             0.4000000          :
          :  net charge                         -1          :
          :  unpaired electrons                  0          :
          ...................................................

 iter      E             dE          RMSdq      gap      omega  full diag
   1    -77.6087470 -0.776087E+02  0.410E+00    2.09       0.0  T
   2    -77.7442383 -0.135491E+00  0.232E+00    1.57       1.0  T
   3    -77.7438736  0.364748E-03  0.108E+00    1.47       1.0  T
   4    -77.7482178 -0.434422E-02  0.397E-01    1.32       1.0  T
   5    -77.7545878 -0.637006E-02  0.115E-01    1.42       1.0  T
   6    -77.7549823 -0.394499E-03  0.563E-02    1.41       1.0  T
   7    -77.7550568 -0.745225E-04  0.264E-02    1.43       1.0  T
   8    -77.7550617 -0.489426E-05  0.994E-03    1.42       1.5  T
   9    -77.7550656 -0.382781E-05  0.378E-03    1.43       3.9  T
  10    -77.7550658 -0.235834E-06  0.188E-03    1.43       7.8  T
  11    -77.7550658 -0.410896E-07  0.620E-04    1.43      23.8  T
  12    -77.7550659 -0.777530E-08  0.277E-04    1.43      53.1  T
  13    -77.7550659 -0.126505E-08  0.115E-04    1.43     128.6  T
  14    -77.7550659 -0.489564E-10  0.331E-05    1.43     444.8  T

   *** convergence criteria satisfied after 14 iterations ***

         #    Occupation            Energy/Eh            Energy/eV
      -------------------------------------------------------------
         1        2.0000           -0.5651997             -15.3799
       ...           ...                  ...                  ...
        63        2.0000           -0.2817435              -7.6666
        64        2.0000           -0.2726779              -7.4199
        65        2.0000           -0.2663614              -7.2481
        66        2.0000           -0.2506462              -6.8204
        67        2.0000           -0.2383930              -6.4870
        68        2.0000           -0.2333433              -6.3496
        69        2.0000           -0.1952390              -5.3127 (HOMO)
        70                         -0.1428231              -3.8864 (LUMO)
        71                         -0.1413136              -3.8453
        72                         -0.1128938              -3.0720
        73                         -0.1056899              -2.8760
        74                         -0.0821355              -2.2350
       ...                                ...                  ...
       127                          0.8185455              22.2738
      -------------------------------------------------------------
                  HL-Gap            0.0524159 Eh            1.4263 eV
             Fermi-level           -0.1691189 Eh           -4.6020 eV

 SCC (total)                   0 d,  0 h,  0 min,  0.065 sec
 SCC setup                      ...        0 min,  0.001 sec (  0.876%)
 Dispersion                     ...        0 min,  0.001 sec (  1.797%)
 classical contributions        ...        0 min,  0.000 sec (  0.089%)
 integral evaluation            ...        0 min,  0.005 sec (  7.525%)
 iterations                     ...        0 min,  0.053 sec ( 82.495%)
 molecular gradient             ...        0 min,  0.004 sec (  6.723%)
 printout                       ...        0 min,  0.000 sec (  0.434%)

         :::::::::::::::::::::::::::::::::::::::::::::::::::::
         ::                     SUMMARY                     ::
         :::::::::::::::::::::::::::::::::::::::::::::::::::::
         :: total energy             -76.732531075879 Eh    ::
         :: gradient norm              0.118254846276 Eh/a0 ::
         :: HOMO-LUMO gap              1.426309755284 eV    ::
         ::.................................................::
         :: SCC energy               -77.754210867636 Eh    ::
         :: -> isotropic ES            0.212908831536 Eh    ::
         :: -> anisotropic ES          0.009715176011 Eh    ::
         :: -> anisotropic XC          0.024771768995 Eh    ::
         :: -> dispersion             -0.059161209947 Eh    ::
         :: repulsion energy           1.021679791757 Eh    ::
         :: add. restraining           0.000000000000 Eh    ::
         :: total charge              -1.000000000000 e     ::
         :::::::::::::::::::::::::::::::::::::::::::::::::::::


Property printout bound to 'properties.out'

           -------------------------------------------------
          | TOTAL ENERGY              -76.732531075879 Eh   |
          | GRADIENT NORM               0.118254846276 Eh/α |
          | HOMO-LUMO GAP               1.426309755284 eV   |
           -------------------------------------------------

------------------------------------------------------------------------
 * finished run on 2025/11/13 at 17:51:02.051     
------------------------------------------------------------------------
 total:
 * wall-time:     0 d,  0 h,  0 min,  0.084 sec
 *  cpu-time:     0 d,  0 h,  0 min,  1.252 sec
 * ratio c/w:    14.937 speedup
 SCF:
 * wall-time:     0 d,  0 h,  0 min,  0.065 sec
 *  cpu-time:     0 d,  0 h,  0 min,  1.032 sec
 * ratio c/w:    15.897 speedup


-------------------------   --------------------
FINAL SINGLE POINT ENERGY       -76.732531075880
-------------------------   --------------------


-------------
DIPOLE MOMENT
-------------
                                X             Y             Z
Total Dipole Moment    :      8.58300      -0.35900       0.79700
                        -----------------------------------------
Magnitude (a.u.)       :      8.62740
Magnitude (Debye)      :     21.92910


------------------
CARTESIAN GRADIENT
------------------

   1   O   :   -0.010964695    0.000158230   -0.015704565
   2   C   :   -0.001622256   -0.008783322    0.011996971
   3   C   :    0.005813208    0.007107248   -0.002887158
   4   C   :    0.004577125    0.006281141    0.014085753
   5   C   :    0.000373203    0.003376250    0.006021262
   6   C   :   -0.001615671   -0.000285261    0.001994517
   7   C   :    0.001062504   -0.000273750   -0.002497136
   8   C   :    0.008563159    0.007183406    0.000748246
   9   C   :    0.004032801    0.007522421    0.007599974
  10   O   :    0.002282442    0.005651935    0.017687170
  11   O   :   -0.003995050   -0.001607836   -0.001724786
  12   C   :   -0.022884785   -0.024286204   -0.033842487
  13   C   :    0.016013193    0.001615864   -0.019505330
  14   C   :    0.002264713    0.000902993    0.004046201
  15   C   :    0.008315046    0.004547626   -0.002996324
  16   N   :   -0.013717346   -0.008445662   -0.009249212
  17   C   :    0.025927850    0.029632711    0.043411401
  18   C   :    0.017103136   -0.003127737   -0.040989018
  19   N   :   -0.017900046   -0.004600495    0.011403225
  20   N   :   -0.024096716   -0.010715821    0.003138558
  21   N   :   -0.026382275   -0.012164411   -0.012376314
  22   H   :    0.004208139    0.003016893    0.003900754
  23   H   :    0.002096087    0.003443284    0.007939693
  24   H   :   -0.003123446   -0.001491498    0.014144472
  25   H   :   -0.003372485   -0.003101807    0.003947830
  26   H   :   -0.001674186    0.000273062   -0.000010568
  27   H   :    0.000966753    0.004004734   -0.003946635
  28   H   :   -0.001860467    0.000570688    0.004294995
  29   H   :   -0.002308184    0.001465676   -0.001920216
  30   H   :    0.002888312   -0.003373592    0.000360720
  31   H   :    0.004174192    0.000522734   -0.003400641
  32   H   :    0.001204731   -0.003339966    0.001343576
  33   H   :   -0.002935191    0.002729970   -0.000676496
  34   H   :   -0.001228608    0.001175734    0.004148431
  35   H   :   -0.002795609   -0.002770263    0.004225559
  36   C   :   -0.002911293   -0.007477835    0.003879566
  37   C   :   -0.006282579   -0.011483915   -0.006228616
  38   C   :    0.002842850    0.001069262   -0.006681194
  39   H   :    0.001043062    0.004401139   -0.006085462
  40   C   :    0.009704023    0.005898169   -0.003673811
  41   H   :    0.001894495    0.002616602   -0.002042562
  42   C   :    0.005202667    0.002123404   -0.000917898
  43   H   :    0.002894857    0.000828646    0.000142126
  44   C   :    0.007390170   -0.003022430    0.007879153
  45   H   :    0.001691786   -0.000962761    0.003611484
  46   H   :    0.007140382    0.003194743   -0.004595207

Difference to translation invariance:
           :   -0.0000000000    0.0000000000    0.0000000000

Difference to rotation invariance:
           :    0.0000000759   -0.0000000308   -0.0000000278

Norm of the Cartesian gradient     ...    0.1182548463
RMS gradient                       ...    0.0100665210
MAX gradient                       ...    0.0434114009
------------------------------------------------------------------------------
                         ORCA GEOMETRY RELAXATION STEP
------------------------------------------------------------------------------

Reading the OPT-File                    .... done
Getting information on internals        .... done
Copying old internal coords+grads       .... done
Making the new internal coordinates     .... (2022 redundants) done
Validating the new internal coordinates .... (2022 redundants) done
Calculating the B-matrix                .... done
Calculating the G,G- and P matrices     .... done
Transforming gradient to internals      .... done
Projecting the internal gradient        .... done
Number of atoms                         ....  46
Number of internal coordinates          .... 246
Current Energy                          ....   -76.732531076 Eh
Current gradient norm                   ....     0.118254846 Eh/bohr
Maximum allowed component of the step   ....  0.300
Current trust radius                    ....  0.300
Evaluating the initial hessian          ....  (Almloef) done
Projecting the Hessian                  .... done
Forming the augmented Hessian           .... done
Diagonalizing the augmented Hessian     .... done
Last element of RFO vector              ....  0.949358082
Lowest eigenvalues of augmented Hessian:
 -0.029456414  0.010154391  0.010398996  0.012672257  0.012896040
Length of the computed step             ....  0.330956436
Warning: the length of the step is outside the trust region - taking restricted step instead
The input lambda is                     ....     0.009087
   iter:   5  x=   -0.007975  g=   28.978311 f(x)=     0.248056
   iter:  10  x=   -0.042041  g=    1.201712 f(x)=     0.000041
The output lambda is                    ....    -0.042041 (12 iterations)
The final length of the internal step   ....  0.300000000
Converting the step to Cartesian space:
 Initial RMS(Int)=    0.0191273014
Transforming coordinates:
 Iter   0:  RMS(Cart)=    0.1472956733 RMS(Int)=    0.4005933762
 Iter   5:  RMS(Cart)=    0.0000000637 RMS(Int)=    0.0000000233
done
Storing new coordinates                 .... done

                                .--------------------.
          ----------------------|Geometry convergence|-------------------------
          Item                value                   Tolerance       Converged
          ---------------------------------------------------------------------
          RMS gradient        0.0072411677            0.0001000000      NO
          MAX gradient        0.0342124489            0.0003000000      NO
          RMS step            0.0191273014            0.0020000000      NO
          MAX step            0.0761316973            0.0040000000      NO
          -------------------------------------------------------------------------
          ........................................................
          Max(Bonds)      0.0403      Max(Angles)    3.25
          Max(Dihed)        3.11      Max(Improp)    0.00
          ---------------------------------------------------------------------

The optimization has not yet converged - more geometry cycles are needed


    ---------------------------------------------------------------------------
                         Redundant Internal Coordinates
                            (Angstroem and degrees)

        Definition                    Value    dE/dq     Step     New-Value
    ----------------------------------------------------------------------------
     1. B(C   1,O   0)                1.4265  0.013415 -0.0137    1.4129   
     2. B(C   7,C   5)                1.5023  0.002401 -0.0026    1.4997   
     3. B(C   7,C   2)                1.4031  0.011087 -0.0098    1.3933   
     4. B(C   8,C   6)                1.5022  0.001317 -0.0015    1.5007   
     5. B(C   8,C   3)                1.4052  0.011595 -0.0090    1.3962   
     6. B(C   8,C   7)                1.3983  0.013076 -0.0101    1.3882   
     7. B(C  11,O   9)                1.2334 -0.016371  0.0086    1.2420   
     8. B(C  12,O  10)                1.2332  0.004198 -0.0021    1.2311   
     9. B(C  13,C   2)                1.4055  0.019419 -0.0170    1.3885   
    10. B(C  14,C  13)                1.4257  0.012601 -0.0127    1.4130   
    11. B(C  14,C   3)                1.4120  0.024890 -0.0212    1.3908   
    12. B(N  15,C  14)                1.4326  0.031276 -0.0314    1.4012   
    13. B(N  15,C   4)                1.4656  0.024938 -0.0283    1.4373   
    14. B(C  16,C  11)                1.4988  0.034212 -0.0403    1.4586   
    15. B(C  17,N  15)                1.4192  0.020268 -0.0186    1.4006   
    16. B(C  17,C  16)                1.3576 -0.015497  0.0110    1.3686   
    17. B(N  18,C  12)                1.3749 -0.024411  0.0210    1.3959   
    18. B(N  18,C  11)                1.3654  0.002921 -0.0020    1.3635   
    19. B(N  19,C  17)                1.3604  0.027063 -0.0219    1.3385   
    20. B(N  19,C  12)                1.3306  0.000512 -0.0002    1.3304   
    21. B(N  20,C  16)                1.4115  0.000676 -0.0019    1.4096   
    22. B(N  20,C  13)                1.4200  0.025243 -0.0267    1.3933   
    23. B(N  20,C   1)                1.4797  0.021970 -0.0286    1.4511   
    24. B(H  21,O   9)                1.6889 -0.001385  0.0173    1.7062   
    25. B(H  21,O   0)                0.9795 -0.006685  0.0077    0.9872   
    26. B(H  22,N  18)                1.0031 -0.008435  0.0092    1.0122   
    27. B(H  23,C   4)                1.0952  0.004731 -0.0063    1.0888   
    28. B(H  24,C   4)                1.0962  0.001417 -0.0019    1.0943   
    29. B(H  25,C   4)                1.0962  0.000921 -0.0012    1.0950   
    30. B(H  26,C   2)                1.0845  0.004385 -0.0057    1.0788   
    31. B(H  27,C   3)                1.0845  0.004681 -0.0060    1.0784   
    32. B(H  28,C   5)                1.0935  0.001698 -0.0023    1.0912   
    33. B(H  29,C   5)                1.0955  0.003194 -0.0043    1.0912   
    34. B(H  30,C   5)                1.0955  0.005775 -0.0065    1.0889   
    35. B(H  31,C   6)                1.0946  0.002439 -0.0033    1.0914   
    36. B(H  32,C   6)                1.0946  0.002766 -0.0037    1.0909   
    37. B(H  33,C   6)                1.0951  0.003937 -0.0053    1.0898   
    38. B(C  35,H  34)                1.0891  0.005706 -0.0075    1.0816   
    39. B(C  36,C  35)                1.4055  0.017022 -0.0147    1.3908   
    40. B(C  36,C   1)                1.5350  0.017256 -0.0238    1.5112   
    41. B(C  37,C  36)                1.4109  0.022213 -0.0193    1.3916   
    42. B(H  38,C  37)                1.0888  0.006590 -0.0086    1.0802   
    43. B(C  39,C  37)                1.3953  0.011565 -0.0100    1.3852   
    44. B(H  40,C  39)                1.0861  0.003749 -0.0049    1.0813   
    45. B(C  41,C  39)                1.3908  0.006353 -0.0054    1.3854   
    46. B(H  42,H  30)                4.2904  0.002764 -0.0067    4.2837   
    47. B(H  42,C  41)                1.0860  0.001616 -0.0034    1.0826   
    48. B(C  43,C  41)                1.3950  0.012420 -0.0097    1.3852   
    49. B(C  43,C  35)                1.3996  0.016854 -0.0140    1.3857   
    50. B(H  44,C  43)                1.0865  0.004033 -0.0052    1.0812   
    51. B(H  45,C   1)                1.1000 -0.003937  0.0054    1.1053   
    52. A(C   1,O   0,H  21)          101.97 -0.002286    0.19    102.16   
    53. A(O   0,C   1,N  20)          109.16 -0.009237    1.72    110.87   
    54. A(N  20,C   1,C  36)          118.66  0.011144   -3.25    115.42   
    55. A(N  20,C   1,H  45)          108.83  0.004834   -0.92    107.91   
    56. A(O   0,C   1,C  36)          109.16 -0.001217    0.57    109.73   
    57. A(O   0,C   1,H  45)          106.81 -0.001094    0.85    107.66   
    58. A(C  36,C   1,H  45)          103.53 -0.004979    1.33    104.85   
    59. A(C  13,C   2,H  26)          119.13  0.000567   -0.11    119.01   
    60. A(C   7,C   2,H  26)          118.01 -0.003392    0.46    118.47   
    61. A(C   7,C   2,C  13)          122.86  0.002807   -0.35    122.51   
    62. A(C  14,C   3,H  27)          119.88  0.000168   -0.00    119.88   
    63. A(C   8,C   3,H  27)          117.54 -0.000965    0.16    117.70   
    64. A(C   8,C   3,C  14)          122.58  0.000797   -0.16    122.42   
    65. A(H  24,C   4,H  25)          109.51 -0.001460    0.31    109.82   
    66. A(N  15,C   4,H  25)          110.69 -0.003050    0.37    111.06   
    67. A(H  23,C   4,H  24)          104.60 -0.011594    2.03    106.63   
    68. A(H  23,C   4,H  25)          107.19 -0.005728    0.75    107.94   
    69. A(N  15,C   4,H  24)          110.84  0.002741   -0.38    110.45   
    70. A(N  15,C   4,H  23)          113.75  0.018116   -2.91    110.84   
    71. A(C   7,C   5,H  30)          111.63  0.003609   -0.53    111.11   
    72. A(C   7,C   5,H  29)          110.07 -0.001869    0.20    110.27   
    73. A(H  28,C   5,H  29)          109.56  0.002936   -0.66    108.90   
    74. A(H  28,C   5,H  30)          107.94  0.000483    0.13    108.07   
    75. A(H  29,C   5,H  30)          106.90 -0.003898    0.63    107.53   
    76. A(C   7,C   5,H  28)          110.63 -0.001248    0.22    110.86   
    77. A(H  32,C   6,H  33)          107.38 -0.001537    0.37    107.76   
    78. A(C   8,C   6,H  32)          110.35 -0.001351    0.18    110.53   
    79. A(C   8,C   6,H  31)          110.27 -0.001800    0.23    110.50   
    80. A(C   8,C   6,H  33)          111.67  0.002969   -0.38    111.29   
    81. A(H  31,C   6,H  32)          109.48  0.003020   -0.69    108.80   
    82. A(H  31,C   6,H  33)          107.58 -0.001228    0.27    107.85   
    83. A(C   2,C   7,C   8)          118.90  0.000642   -0.05    118.85   
    84. A(C   2,C   7,C   5)          119.09 -0.004560    0.42    119.51   
    85. A(C   5,C   7,C   8)          122.00  0.003891   -0.36    121.64   
    86. A(C   6,C   8,C   7)          121.57  0.002277   -0.31    121.26   
    87. A(C   3,C   8,C   7)          118.90 -0.000536    0.11    119.00   
    88. A(C   3,C   8,C   6)          119.53 -0.001737    0.21    119.74   
    89. A(O   9,C  11,C  16)          123.01 -0.014490    1.59    124.61   
    90. A(C  16,C  11,N  18)          115.63  0.008376   -1.02    114.61   
    91. A(O   9,C  11,N  18)          121.34  0.006095   -0.56    120.78   
    92. A(N  18,C  12,N  19)          117.54  0.002761   -0.28    117.26   
    93. A(O  10,C  12,N  19)          124.87  0.000793   -0.11    124.76   
    94. A(O  10,C  12,N  18)          117.59 -0.003554    0.38    117.97   
    95. A(C  14,C  13,N  20)          119.57 -0.003981    0.41    119.98   
    96. A(C   2,C  13,N  20)          122.54  0.006697   -0.95    121.59   
    97. A(C   2,C  13,C  14)          117.88 -0.002696    0.54    118.42   
    98. A(C  13,C  14,N  15)          119.33 -0.003859    0.24    119.58   
    99. A(C   3,C  14,N  15)          122.38  0.005114   -0.33    122.05   
   100. A(C   3,C  14,C  13)          118.28 -0.001255    0.09    118.37   
   101. A(C   4,N  15,C  17)          122.78  0.012991   -1.76    121.02   
   102. A(C   4,N  15,C  14)          117.20 -0.010946    1.48    118.68   
   103. A(C  14,N  15,C  17)          119.12 -0.001724    0.10    119.22   
   104. A(C  11,C  16,C  17)          113.17 -0.014544    1.91    115.08   
   105. A(C  17,C  16,N  20)          124.84  0.015913   -1.89    122.95   
   106. A(C  11,C  16,N  20)          121.94 -0.001357   -0.05    121.89   
   107. A(C  16,C  17,N  19)          128.10  0.001207   -0.33    127.76   
   108. A(N  15,C  17,N  19)          113.96  0.002415   -0.16    113.79   
   109. A(N  15,C  17,C  16)          117.95 -0.003622    0.50    118.44   
   110. A(C  11,N  18,C  12)          126.50 -0.000547    0.14    126.64   
   111. A(C  12,N  18,H  22)          115.42 -0.002383    0.32    115.74   
   112. A(C  11,N  18,H  22)          117.86  0.002896   -0.44    117.42   
   113. A(C  12,N  19,C  17)          118.94  0.002806   -0.47    118.47   
   114. A(C   1,N  20,C  13)          122.51 -0.002249   -0.57    121.94   
   115. A(C  13,N  20,C  16)          115.96 -0.002141    0.33    116.29   
   116. A(C   1,N  20,C  16)          120.27  0.004692   -0.03    120.25   
   117. A(H  34,C  35,C  36)          119.81  0.001364   -0.10    119.71   
   118. A(C  36,C  35,C  43)          120.63 -0.000961   -0.00    120.63   
   119. A(H  34,C  35,C  43)          119.48 -0.000529    0.16    119.64   
   120. A(C  35,C  36,C  37)          117.87 -0.005012    0.67    118.54   
   121. A(C   1,C  36,C  37)          121.04 -0.002347    0.06    121.10   
   122. A(C   1,C  36,C  35)          121.08  0.007306   -0.70    120.37   
   123. A(H  38,C  37,C  39)          118.76 -0.005618    0.80    119.56   
   124. A(C  36,C  37,C  39)          121.37  0.003294   -0.41    120.96   
   125. A(C  36,C  37,H  38)          119.80  0.002197   -0.32    119.48   
   126. A(H  40,C  39,C  41)          120.53  0.000750   -0.10    120.43   
   127. A(C  37,C  39,C  41)          119.80 -0.001034    0.14    119.94   
   128. A(C  37,C  39,H  40)          119.66  0.000261   -0.03    119.63   
   129. A(H  42,C  41,C  43)          120.22  0.000061   -0.02    120.20   
   130. A(C  39,C  41,C  43)          119.87  0.002776   -0.22    119.65   
   131. A(C  39,C  41,H  42)          119.90 -0.002841    0.24    120.15   
   132. A(C  41,C  43,H  44)          119.88 -0.000808    0.12    120.00   
   133. A(C  35,C  43,H  44)          119.73 -0.000021    0.00    119.74   
   134. A(C  35,C  43,C  41)          120.37  0.000797   -0.11    120.27   
   135. D(N  20,C   1,O   0,H  21)    -60.61  0.003995   -2.83    -63.44   
   136. D(H  45,C   1,O   0,H  21)     56.90  0.004282   -2.54     54.35   
   137. D(C  36,C   1,O   0,H  21)    168.22 -0.002562   -0.33    167.88   
   138. D(C   8,C   7,C   2,C  13)     -6.63 -0.002810    1.45     -5.18   
   139. D(C   2,C   7,C   5,H  29)   -121.98  0.000981   -0.18   -122.15   
   140. D(C   8,C   7,C   2,H  26)    174.10 -0.001212    1.14    175.25   
   141. D(C   2,C   7,C   5,H  30)     -3.43 -0.002817    0.40     -3.03   
   142. D(C   8,C   7,C   5,H  28)    -64.40 -0.002175    0.80    -63.60   
   143. D(C   5,C   7,C   2,H  26)     -7.05 -0.002653    1.55     -5.50   
   144. D(C   5,C   7,C   2,C  13)    172.22 -0.004250    1.86    174.07   
   145. D(C   2,C   7,C   5,H  28)    116.79 -0.000645    0.38    117.17   
   146. D(C   8,C   7,C   5,H  29)     56.83 -0.000550    0.25     57.08   
   147. D(C   7,C   8,C   3,C  14)      2.66  0.000237    0.03      2.69   
   148. D(C   6,C   8,C   3,C  14)   -177.82  0.000854   -0.05   -177.88   
   149. D(C   6,C   8,C   3,H  27)      2.12  0.000285   -0.23      1.89   
   150. D(C   6,C   8,C   7,C   5)      1.98  0.002395   -0.96      1.02   
   151. D(C   7,C   8,C   6,H  31)    -63.64 -0.000511    0.27    -63.37   
   152. D(C   3,C   8,C   7,C   2)      0.30  0.001417   -0.61     -0.31   
   153. D(C   3,C   8,C   7,C   5)   -178.51  0.003005   -1.04   -179.55   
   154. D(C   7,C   8,C   6,H  32)     57.44  0.001204   -0.32     57.12   
   155. D(C   3,C   8,C   6,H  32)   -122.06  0.000585   -0.24   -122.30   
   156. D(C   3,C   8,C   6,H  33)     -2.70 -0.000317    0.11     -2.59   
   157. D(C   7,C   8,C   3,H  27)   -177.40 -0.000332   -0.15   -177.55   
   158. D(C   3,C   8,C   6,H  31)    116.85 -0.001130    0.35    117.21   
   159. D(C   6,C   8,C   7,C   2)   -179.20  0.000808   -0.53   -179.74   
   160. D(N  20,C  13,C   2,H  26)      7.54  0.001300   -0.90      6.64   
   161. D(N  20,C  13,C   2,C   7)   -171.72  0.002942   -1.21   -172.93   
   162. D(C  14,C  13,C   2,H  26)   -171.06  0.000427   -1.23   -172.29   
   163. D(C  14,C  13,C   2,C   7)      9.68  0.002069   -1.54      8.14   
   164. D(C  13,C  14,C   3,H  27)   -179.47 -0.000139   -0.00   -179.47   
   165. D(C  13,C  14,C   3,C   8)      0.47 -0.000722   -0.18      0.29   
   166. D(N  15,C  14,C  13,N  20)     -5.43 -0.000965    0.70     -4.73   
   167. D(N  15,C  14,C  13,C   2)    173.21  0.000036    1.01    174.22   
   168. D(C   3,C  14,C  13,N  20)    174.97 -0.001011    0.54    175.51   
   169. D(C   3,C  14,C  13,C   2)     -6.39 -0.000010    0.85     -5.54   
   170. D(N  15,C  14,C   3,H  27)      0.94 -0.000148   -0.17      0.77   
   171. D(N  15,C  14,C   3,C   8)   -179.12 -0.000730   -0.35   -179.47   
   172. D(C  17,N  15,C  14,C  13)    -10.34  0.002772   -1.23    -11.57   
   173. D(C  17,N  15,C  14,C   3)    169.24  0.002791   -1.06    168.18   
   174. D(C   4,N  15,C  14,C  13)   -179.77 -0.000497    0.03   -179.75   
   175. D(C   4,N  15,C  14,C   3)     -0.19 -0.000477    0.19      0.00   
   176. D(C  17,N  15,C   4,H  24)    135.97 -0.000185   -0.01    135.96   
   177. D(C  14,N  15,C   4,H  25)     66.70 -0.000658   -0.70     66.01   
   178. D(C  14,N  15,C   4,H  24)    -55.02  0.001407   -1.08    -56.10   
   179. D(C  14,N  15,C   4,H  23)   -172.54  0.002363   -1.49   -174.03   
   180. D(C  17,N  15,C   4,H  23)     18.44  0.000771   -0.42     18.02   
   181. D(N  20,C  16,C  11,N  18)    178.86  0.000602   -0.59    178.27   
   182. D(N  20,C  16,C  11,O   9)     -2.65 -0.000076    0.05     -2.60   
   183. D(C  17,C  16,C  11,N  18)     -3.70  0.001269   -1.16     -4.86   
   184. D(C  17,C  16,C  11,O   9)    174.80  0.000590   -0.53    174.27   
   185. D(N  19,C  17,C  16,N  20)    179.59 -0.001054    0.48    180.07   
   186. D(N  19,C  17,C  16,C  11)      2.24 -0.001193    1.01      3.25   
   187. D(N  15,C  17,C  16,N  20)     -0.45 -0.001633    0.78      0.34   
   188. D(N  15,C  17,C  16,C  11)   -177.81 -0.001773    1.32   -176.49   
   189. D(N  19,C  17,N  15,C  14)   -166.74 -0.000754    0.66   -166.07   
   190. D(N  19,C  17,N  15,C   4)      2.08 -0.000055   -0.29      1.79   
   191. D(C  16,C  17,N  15,C  14)     13.30 -0.000255    0.40     13.70   
   192. D(C  16,C  17,N  15,C   4)   -177.89  0.000444   -0.56   -178.44   
   193. D(C  11,N  18,C  12,O  10)    177.36 -0.000377    0.30    177.66   
   194. D(H  22,N  18,C  11,C  16)    178.43 -0.000990    0.79    179.22   
   195. D(H  22,N  18,C  11,O   9)     -0.09  0.000015    0.13      0.04   
   196. D(C  12,N  18,C  11,C  16)      4.09 -0.000441    0.52      4.61   
   197. D(C  12,N  18,C  11,O   9)   -174.43  0.000563   -0.14   -174.57   
   198. D(H  22,N  18,C  12,N  19)   -176.81 -0.000062    0.20   -176.61   
   199. D(H  22,N  18,C  12,O  10)      2.90 -0.000099    0.08      2.98   
   200. D(C  11,N  18,C  12,N  19)     -2.35 -0.000341    0.42     -1.93   
   201. D(C  12,N  19,C  17,C  16)     -0.51 -0.000274   -0.00     -0.52   
   202. D(C  12,N  19,C  17,N  15)    179.53  0.000288   -0.30    179.23   
   203. D(C  17,N  19,C  12,N  18)      0.30  0.000735   -0.71     -0.41   
   204. D(C  17,N  19,C  12,O  10)   -179.39  0.000788   -0.58   -179.97   
   205. D(C  13,N  20,C  16,C  17)    -14.95  0.001765   -1.17    -16.12   
   206. D(C  13,N  20,C  16,C  11)    162.18  0.001647   -1.70    160.48   
   207. D(C   1,N  20,C  16,C  17)    152.61  0.002923   -2.57    150.03   
   208. D(C   1,N  20,C  16,C  11)    -30.26  0.002804   -3.11    -33.36   
   209. D(C  16,N  20,C  13,C  14)     17.37 -0.001983    0.56     17.93   
   210. D(C  16,N  20,C  13,C   2)   -161.21 -0.002892    0.22   -160.99   
   211. D(C   1,N  20,C  13,C  14)   -149.89 -0.004114    1.92   -147.97   
   212. D(C   1,N  20,C  13,C   2)     31.54 -0.005023    1.58     33.11   
   213. D(C  16,N  20,C   1,C  36)   -148.86 -0.006027    1.66   -147.21   
   214. D(C  16,N  20,C   1,O   0)     85.27 -0.004948    1.94     87.21   
   215. D(C  13,N  20,C   1,H  45)    135.76  0.000097   -0.89    134.88   
   216. D(C  13,N  20,C   1,C  36)     17.86 -0.004697    0.28     18.14   
   217. D(C  13,N  20,C   1,O   0)   -108.01 -0.003617    0.57   -107.45   
   218. D(C  37,C  36,C  35,C  43)      2.94  0.002291   -1.08      1.86   
   219. D(C   1,C  36,C  35,C  43)   -175.76  0.004951   -2.24   -178.00   
   220. D(C   1,C  36,C  35,H  34)      0.99  0.002338   -1.02     -0.02   
   221. D(C  37,C  36,C   1,N  20)   -119.80  0.006227   -2.14   -121.95   
   222. D(C  37,C  36,C   1,O   0)      6.06  0.001294   -1.88      4.18   
   223. D(C  35,C  36,C   1,H  45)    -61.80 -0.005632    1.17    -60.63   
   224. D(C  37,C  36,C  35,H  34)    179.69 -0.000322    0.15    179.83   
   225. D(C  35,C  36,C   1,N  20)     58.85  0.003454   -0.93     57.91   
   226. D(C  35,C  36,C   1,O   0)   -175.28 -0.001479   -0.67   -175.95   
   227. D(C  39,C  37,C  36,C  35)     -3.24 -0.002658    1.31     -1.93   
   228. D(C  39,C  37,C  36,C   1)    175.45 -0.005184    2.47    177.92   
   229. D(H  38,C  37,C  36,C  35)    179.79  0.000355   -0.20    179.58   
   230. D(H  38,C  37,C  36,C   1)     -1.52 -0.002171    0.95     -0.57   
   231. D(C  41,C  39,C  37,H  38)    178.41 -0.001739    0.78    179.19   
   232. D(C  41,C  39,C  37,C  36)      1.41  0.001015   -0.69      0.72   
   233. D(H  40,C  39,C  37,H  38)     -0.36 -0.000563    0.33     -0.02   
   234. D(H  40,C  39,C  37,C  36)   -177.36  0.002191   -1.14   -178.50   
   235. D(C  43,C  41,C  39,H  40)    179.56 -0.000075    0.24    179.79   
   236. D(C  43,C  41,C  39,C  37)      0.80  0.001117   -0.22      0.58   
   237. D(H  42,C  41,C  39,H  40)      0.04  0.000423    0.03      0.06   
   238. D(H  42,C  41,C  39,C  37)   -178.72  0.001615   -0.42   -179.14   
   239. D(H  44,C  43,C  41,H  42)     -0.07 -0.000435   -0.04     -0.11   
   240. D(H  44,C  43,C  41,C  39)   -179.58  0.000078   -0.25   -179.84   
   241. D(C  35,C  43,C  41,H  42)    178.43 -0.001864    0.64    179.08   
   242. D(C  35,C  43,C  41,C  39)     -1.08 -0.001350    0.43     -0.65   
   243. D(H  44,C  43,C  35,C  36)    177.67 -0.002015    0.94    178.61   
   244. D(H  44,C  43,C  35,H  34)      0.91  0.000528   -0.27      0.63   
   245. D(C  41,C  43,C  35,C  36)     -0.83 -0.000577    0.25     -0.58   
   246. D(C  41,C  43,C  35,H  34)   -177.60  0.001966   -0.96   -178.56   
    ----------------------------------------------------------------------------

Geometry step timings:
Preparation and reading OPT file:      0.000 s ( 0.139 %)
Internal coordinates            :      0.000 s ( 0.199 %)
B/P matrices and projection     :      0.006 s (31.606 %)
Hessian update/contruction      :      0.002 s (11.483 %)
Making the step                 :      0.010 s (48.286 %)
Converting the step to Cartesian:      0.001 s ( 2.529 %)
Storing new data                :      0.000 s ( 0.238 %)
Checking convergence            :      0.000 s ( 0.283 %)
Final printing                  :      0.001 s ( 5.227 %)
Total time                      :      0.020 s

Time for energy+gradient        :      0.092 s
Time for complete geometry iter :      0.113 s

         *************************************************************
         *                GEOMETRY OPTIMIZATION CYCLE   2            *
[...]

----------------------------
CARTESIAN COORDINATES (A.U.)
----------------------------
  NO LB    ZA    FRAG    MASS        X           Y           Z
   0 O   8.0000    0    15.999   -2.907586    2.415650   -4.776677
   1 C   6.0000    0    12.011   -2.555659    0.986843   -2.584006
   2 C   6.0000    0    12.011   -1.628043    5.364079    0.834909
   3 C   6.0000    0    12.011   -3.826143    5.068667    5.531373
   4 C   6.0000    0    12.011   -7.765014    1.498018    6.499347
   5 C   6.0000    0    12.011    1.286415    8.826416    2.204227
   6 C   6.0000    0    12.011   -1.022376    8.483411    7.242697
   7 C   6.0000    0    12.011   -0.788703    6.968601    2.742443
   8 C   6.0000    0    12.011   -1.884634    6.807861    5.119191
   9 O   8.0000    0    15.999   -7.484236    0.439518   -4.790097
  10 O   8.0000    0    15.999  -13.468588   -2.293925    0.681932
  11 C   6.0000    0    12.011   -8.092322    0.163161   -2.522838
  12 C   6.0000    0    12.011  -11.416414   -1.245716    0.477774
  13 C   6.0000    0    12.011   -3.469339    3.552998    1.267607
  14 C   6.0000    0    12.011   -4.641501    3.432237    3.660542
  15 N   7.0000    0    14.007   -6.531192    1.638491    4.077149
  16 C   6.0000    0    12.011   -6.657933    0.811491   -0.362228
  17 C   6.0000    0    12.011   -7.807113    0.658504    1.990579
  18 N   7.0000    0    14.007  -10.402634   -0.897633   -1.947786
  19 N   7.0000    0    14.007  -10.061087   -0.349293    2.418012
  20 N   7.0000    0    14.007   -4.160495    1.793433   -0.528483
  21 H   1.0000    0     1.008   -4.685992    2.039938   -5.243847
  22 H   1.0000    0     1.008  -11.488908   -1.440411   -3.425287
  23 H   1.0000    0     1.008   -9.230372    0.066019    6.326669
  24 H   1.0000    0     1.008   -6.400441    0.963530    7.954453
  25 H   1.0000    0     1.008   -8.652702    3.294078    7.021321
  26 H   1.0000    0     1.008   -0.809223    5.501960   -1.025757
  27 H   1.0000    0     1.008   -4.662054    4.987436    7.389587
  28 H   1.0000    0     1.008    0.659865   10.757254    2.563187
  29 H   1.0000    0     1.008    2.920453    8.463227    3.407902
  30 H   1.0000    0     1.008    1.882563    8.683571    0.243260
  31 H   1.0000    0     1.008    0.988024    8.218940    7.614807
  32 H   1.0000    0     1.008   -1.312706   10.470181    6.773976
  33 H   1.0000    0     1.008   -2.062695    8.066974    8.966358
  34 H   1.0000    0     1.008   -0.557879   -0.875450    1.726649
  35 C   6.0000    0    12.011    0.884611   -0.134950    0.486997
  36 C   6.0000    0    12.011    0.193750    0.928516   -1.812442
  37 C   6.0000    0    12.011    2.055665    1.858893   -3.405611
  38 H   1.0000    0     1.008    1.494990    2.674017   -5.188421
  39 C   6.0000    0    12.011    4.570493    1.762729   -2.696591
  40 H   1.0000    0     1.008    6.008221    2.503161   -3.946960
  41 C   6.0000    0    12.011    5.247781    0.730052   -0.391740
  42 H   1.0000    0     1.008    7.212526    0.664722    0.168460
  43 C   6.0000    0    12.011    3.396569   -0.222543    1.195173
  44 H   1.0000    0     1.008    3.915740   -1.036040    2.996168
  45 H   1.0000    0     1.008   -3.116769   -0.997629   -2.969479

      -----------------------------------------------------------      
     |                   =====================                   |     
     |                           x T B                           |     
     |                   =====================                   |     
     |                         S. Grimme                         |     
     |          Mulliken Center for Theoretical Chemistry        |     
     |                    University of Bonn                     |     
      -----------------------------------------------------------      

   * xtb version 6.7.1 (edcfbbe) compiled by 'albert@albert-system' on 2024-07-22

   xtb is free software: you can redistribute it and/or modify it under
   the terms of the GNU Lesser General Public License as published by
   the Free Software Foundation, either version 3 of the License, or
   (at your option) any later version.
   
   xtb is distributed in the hope that it will be useful,
   but WITHOUT ANY WARRANTY; without even the implied warranty of
   MERCHANTABILITY or FITNESS FOR A PARTICULAR PURPOSE.  See the
   GNU Lesser General Public License for more details.
   
   Cite this work as:
   * C. Bannwarth, E. Caldeweyher, S. Ehlert, A. Hansen, P. Pracht,
     J. Seibert, S. Spicher, S. Grimme, WIREs Comput. Mol. Sci., 2020, 11,
     e01493. DOI: 10.1002/wcms.1493
   
   for GFN2-xTB:
   * C. Bannwarth, S. Ehlert and S. Grimme., J. Chem. Theory Comput., 2019,
     15, 1652-1671. DOI: 10.1021/acs.jctc.8b01176
   for GFN1-xTB:
   * S. Grimme, C. Bannwarth, P. Shushkov, J. Chem. Theory Comput., 2017,
     13, 1989-2009. DOI: 10.1021/acs.jctc.7b00118
   for GFN0-xTB:
   * P. Pracht, E. Caldeweyher, S. Ehlert, S. Grimme, ChemRxiv, 2019, preprint.
     DOI: 10.26434/chemrxiv.8326202.v1
   for GFN-FF:
   * S. Spicher and S. Grimme, Angew. Chem. Int. Ed., 2020, 59, 15665-15673.
     DOI: 10.1002/anie.202004239
   
   for ALPB and GBSA implicit solvation:
   * S. Ehlert, M. Stahn, S. Spicher, S. Grimme, J. Chem. Theory Comput.,
     2021, 17, 4250-4261. DOI: 10.1021/acs.jctc.1c00471
   
   for ddCOSMO and CPCM-X implicit solvation:
   * M. Stahn, S. Ehlert, S. Grimme, J. Phys. Chem. A,
     2023, XX, XXXX-XXXX. DOI: 10.1021/acs.jpca.3c04382
   
   for DFT-D4:
   * E. Caldeweyher, C. Bannwarth and S. Grimme, J. Chem. Phys., 2017,
     147, 034112. DOI: 10.1063/1.4993215
   * E. Caldeweyher, S. Ehlert, A. Hansen, H. Neugebauer, S. Spicher,
     C. Bannwarth and S. Grimme, J. Chem. Phys., 2019, 150, 154122.
     DOI: 10.1063/1.5090222
   * E. Caldeweyher, J.-M. Mewes, S. Ehlert and S. Grimme, Phys. Chem. Chem. Phys.
     2020, 22, 8499-8512. DOI: 10.1039/D0CP00502A
   
   for sTDA-xTB:
   * S. Grimme and C. Bannwarth, J. Chem. Phys., 2016, 145, 054103.
     DOI: 10.1063/1.4959605
   
   in the mass-spec context:
   * V. Asgeirsson, C. Bauer and S. Grimme, Chem. Sci., 2017, 8, 4879.
     DOI: 10.1039/c7sc00601b
   * J. Koopman and S. Grimme, ACS Omega 2019, 4, 12, 15120-15133.
     DOI: 10.1021/acsomega.9b02011
   
   for metadynamics refer to:
   * S. Grimme, J. Chem. Theory Comput., 2019, 155, 2847-2862
     DOI: 10.1021/acs.jctc.9b00143
   
   for SPH calculations refer to:
   * S. Spicher and S. Grimme, J. Chem. Theory Comput., 2021, 17, 1701-1714
     DOI: 10.1021/acs.jctc.0c01306
   
   for ONIOM refer to:
   * C. Plett, A. Katbashev, S. Ehlert, S. Grimme, M. Bursch,
     Phys. Chem. Chem. Phys., 2023, 25, 17860-17868. DOI: 10.1039/D3CP02178E
   
   for DIPRO refer to:
   * J. Kohn, N. Gildemeister, S. Grimme, D. Fazzi, A. Hansen,
     J. Chem. Phys., 2023, just accepted.
   
   for PTB refer to:
   * S. Grimme, M. Mueller, A. Hansen, J. Chem. Phys., 2023, 158, 124111.
     DOI: 10.1063/5.0137838
   
   with help from (in alphabetical order)
   P. Atkinson, C. Bannwarth, F. Bohle, G. Brandenburg, E. Caldeweyher
   M. Checinski, S. Dohm, S. Ehlert, S. Ehrlich, I. Gerasimov, C. Hölzer
   A. Katbashev, J. Kohn, J. Koopman, C. Lavigne, S. Lehtola, F. März, M. Müller,
   F. Musil, H. Neugebauer, J. Pisarek, C. Plett, P. Pracht, F. Pultar,
   J. Seibert, P. Shushkov, S. Spicher, M. Stahn, M. Steiner, T. Strunk,
   J. Stückrath, T. Rose, and J. Unsleber
   
 * started run on 2025/11/13 at 17:51:03.686     
   ID    Z sym.   atoms
    1    8 O      1, 10, 11
    2    6 C      2-9, 12-15, 17, 18, 36-38, 40, 42, 44
    3    7 N      16, 19-21
    4    1 H      22-35, 39, 41, 43, 45, 46

           -------------------------------------------------
          |                Calculation Setup                |
           -------------------------------------------------

          program call               : /home/mchrnwsk/orca_6_1_0/otool_xtb /home/mchrnwsk/prometheozyme/ingredients/lmo-mandalate/optimised/adduct_right_p/opt_XTB.xyz --grad -c -1 -u 0 -P 16 --namespace /home/mchrnwsk/prometheozyme/ingredients/lmo-mandalate/optimised/adduct_right_p/opt --input /home/mchrnwsk/prometheozyme/ingredients/lmo-mandalate/optimised/adduct_right_p/opt_XTB.input.tmp --acc 0.200000
          calculation namespace      : /home/mchrnwsk/prometheozyme/ingredients/lmo-mandalate/optimised/adduct_right_p/opt
          coordinate file            : /home/mchrnwsk/prometheozyme/ingredients/lmo-mandalate/optimised/adduct_right_p/opt_XTB.xyz
          omp threads                :                    16


           -------------------------------------------------
          |                 G F N 2 - x T B                 |
           -------------------------------------------------

        Reference                      10.1021/acs.jctc.8b01176
      * Hamiltonian:
        H0-scaling (s, p, d)           1.850000    2.230000    2.230000
        zeta-weighting                 0.500000
      * Dispersion:
        s8                             2.700000
        a1                             0.520000
        a2                             5.000000
        s9                             5.000000
      * Repulsion:
        kExp                           1.500000    1.000000
        rExp                           1.000000
      * Coulomb:
        alpha                          2.000000
        third order                    shell-resolved
        anisotropic                    true
        a3                             3.000000
        a5                             4.000000
        cn-shift                       1.200000
        cn-exp                         4.000000
        max-rad                        5.000000

q/qsh data taken from xtbrestart
CAMM data taken from xtbrestart

          ...................................................
          :                      SETUP                      :
          :.................................................:
          :  # basis functions                 127          :
          :  # atomic orbitals                 127          :
          :  # shells                           73          :
          :  # electrons                       138          :
          :  max. iterations                   250          :
          :  Hamiltonian                  GFN2-xTB          :
          :  restarted?                       true          :
          :  GBSA solvation                  false          :
          :  PC potential                    false          :
          :  electronic temp.          300.0000000     K    :
          :  accuracy                    0.2000000          :
          :  -> integral cutoff          0.3198970E+02      :
          :  -> integral neglect         0.2000000E-08      :
          :  -> SCF convergence          0.2000000E-06 Eh   :
          :  -> wf. convergence          0.2000000E-04 e    :
          :  Broyden damping             0.4000000          :
          :  net charge                         -1          :
          :  unpaired electrons                  0          :
          ...................................................

 iter      E             dE          RMSdq      gap      omega  full diag
   1    -77.8465753 -0.778466E+02  0.658E-03    1.66       0.0  T
   2    -77.8465753 -0.243278E-07  0.391E-03    1.66       3.8  T
   3    -77.8465753  0.488488E-08  0.571E-04    1.66      25.8  T
   4    -77.8465753 -0.956068E-08  0.228E-04    1.66      64.6  T
   5    -77.8465753 -0.841212E-09  0.103E-04    1.66     142.5  T
   6    -77.8465753 -0.644746E-10  0.426E-05    1.66     345.7  T

   *** convergence criteria satisfied after 6 iterations ***

         #    Occupation            Energy/Eh            Energy/eV
      -------------------------------------------------------------
         1        2.0000           -0.5685293             -15.4705
       ...           ...                  ...                  ...
        63        2.0000           -0.2782034              -7.5703
        64        2.0000           -0.2727083              -7.4208
        65        2.0000           -0.2666599              -7.2562
        66        2.0000           -0.2538215              -6.9068
        67        2.0000           -0.2427929              -6.6067
        68        2.0000           -0.2384220              -6.4878
        69        2.0000           -0.1976225              -5.3776 (HOMO)
        70                         -0.1367843              -3.7221 (LUMO)
        71                         -0.1349611              -3.6725
        72                         -0.1104708              -3.0061
        73                         -0.0988818              -2.6907
        74                         -0.0800579              -2.1785
       ...                                ...                  ...
       127                          0.8078929              21.9839
      -------------------------------------------------------------
                  HL-Gap            0.0608382 Eh            1.6555 eV
             Fermi-level           -0.1672034 Eh           -4.5498 eV

 SCC (total)                   0 d,  0 h,  0 min,  0.036 sec
 SCC setup                      ...        0 min,  0.000 sec (  1.153%)
 Dispersion                     ...        0 min,  0.001 sec (  2.634%)
 classical contributions        ...        0 min,  0.000 sec (  0.123%)
 integral evaluation            ...        0 min,  0.004 sec ( 10.313%)
 iterations                     ...        0 min,  0.026 sec ( 72.741%)
 molecular gradient             ...        0 min,  0.004 sec ( 12.247%)
 printout                       ...        0 min,  0.000 sec (  0.708%)

         :::::::::::::::::::::::::::::::::::::::::::::::::::::
         ::                     SUMMARY                     ::
         :::::::::::::::::::::::::::::::::::::::::::::::::::::
         :: total energy             -76.758508642494 Eh    ::
         :: gradient norm              0.000392956502 Eh/a0 ::
         :: HOMO-LUMO gap              1.655491892790 eV    ::
         ::.................................................::
         :: SCC energy               -77.845562103169 Eh    ::
         :: -> isotropic ES            0.212785554074 Eh    ::
         :: -> anisotropic ES          0.006480749845 Eh    ::
         :: -> anisotropic XC          0.023476114485 Eh    ::
         :: -> dispersion             -0.060346459663 Eh    ::
         :: repulsion energy           1.087053460675 Eh    ::
         :: add. restraining           0.000000000000 Eh    ::
         :: total charge              -1.000000000000 e     ::
         :::::::::::::::::::::::::::::::::::::::::::::::::::::


Property printout bound to 'properties.out'

           -------------------------------------------------
          | TOTAL ENERGY              -76.758508642494 Eh   |
          | GRADIENT NORM               0.000392956502 Eh/α |
          | HOMO-LUMO GAP               1.655491892790 eV   |
           -------------------------------------------------

------------------------------------------------------------------------
 * finished run on 2025/11/13 at 17:51:03.737     
------------------------------------------------------------------------
 total:
 * wall-time:     0 d,  0 h,  0 min,  0.050 sec
 *  cpu-time:     0 d,  0 h,  0 min,  0.745 sec
 * ratio c/w:    14.942 speedup
 SCF:
 * wall-time:     0 d,  0 h,  0 min,  0.036 sec
 *  cpu-time:     0 d,  0 h,  0 min,  0.566 sec
 * ratio c/w:    15.762 speedup


-------------------------   --------------------
FINAL SINGLE POINT ENERGY       -76.758508642490
-------------------------   --------------------


-------------
DIPOLE MOMENT
-------------
                                X             Y             Z
Total Dipole Moment    :      8.21000      -0.50200       0.81200
                        -----------------------------------------
Magnitude (a.u.)       :      8.26532
Magnitude (Debye)      :     21.00876

                                *** OPTIMIZATION RUN DONE ***


--------------------------------
SUGGESTED CITATIONS FOR THIS RUN
--------------------------------

Below you find a list of papers that are relevant to this ORCA run
We neither can nor want to force you to cite these papers, but we appreciate if you do
You receive ORCA, which is the product of decades of hard work by many enthusiastic individuals, for free
The only thing we kindly ask in return is that you cite our papers,
We deeply appreciate it, if you show your appreciation for ORCA by not just citing the generic ORCA reference.

Please note that relegating all ORCA citations to the supporting information does *not* help us.
SI sections are not indexed - citations you put there will not count into any citation statistics
But we need these citations in order to attract the funding resources that allow us to do what we are doing

Therefore, if you are a happy ORCA user, please consider citing a few of the papers listed below in the main body of your paper

In addition to the list printed below, the program has created the file /home/mchrnwsk/prometheozyme/ingredients/lmo-mandalate/optimised/adduct_right_p/opt.bibtex that contains the list in bibtex format
You can import this file easily into all common literature databanks and citation aid programs


List of essential papers. We consider these as the minimum necessary citations

  1. Bannwarth, C.; Ehlert, S.; Grimme, S.
     GFN2-xTB—An Accurate and Broadly Parametrized Self-Consistent Tight-Binding Quantum Chemical Method with Multipole Electrostatics and Density-Dependent Dispersion Contributions
     J. Chem. Theory Comput. 2019 15(3), 1652-1671
     doi.org/10.1021/acs.jctc.8b01176
  2. Neese, F.
     Software update: the ORCA program system, version 6.0
     WIRES Comput. Molec. Sci. 2025 15(1), e70019
     doi.org/10.1002/wcms.7019

List of papers to cite with high priority. The work reported in these papers was absolutely
necessary for this run to complete.
Our perspective: the developers of density functionals and basis sets usually get cited in chemistry papers
Good! But without the algorithms to do something with them, the functionals or basis sets would not do anything.
Hence, in our opinion, the algorithm design and method developments papers are equally worthy of getting cited

  1. Bannwarth, C.; Caldeweyher, E.; Ehlert, S.; Hansen, A.; Pracht, P.; Seibert, J.; Spicher, S.; Grimme, S.
     Extended tight-binding quantum chemistry methods
     WIRES Comput. Molec. Sci. 2020 11(2), e1493
     doi.org/10.1002/wcms.1493

List of suggested additional citations. These are papers that are important in the 'surrounding' of 
of this run, or papers that preceded the highly important papers. If you like your results we are grateful for a citation.

  1. Neese, F.
     The ORCA program system
     WIRES Comput. Molec. Sci. 2012 2(1), 73-78
     doi.org/10.1002/wcms.81
  2. Neese, F.
     Software update: the ORCA program system, version 4.0
     WIRES Comput. Molec. Sci. 2018 8(1), 1-6
     doi.org/10.1002/wcms.1327
  3. Neese, F.; Wennmohs, F.; Becker, U.; Riplinger, C.
     The ORCA quantum chemistry program package
     J. Chem. Phys. 2020 152(22), 224108
     doi.org/10.1063/5.0004608
  4. Neese, F.
     Software update: The ORCA program system—Version 5.0
     WIRES Comput. Molec. Sci. 2022 12(1), e1606
     doi.org/10.1002/wcms.1606

List of optional additional citations

  1. Neese, F.
     Approximate second-order SCF convergence for spin unrestricted wavefunctions
     Chem. Phys. Lett. 2000 325(1-3), 93-98
     doi.org/10.1016/s0009-2614(00)00662-x

Timings for individual modules:

Sum of individual times          ...        1.710 sec (=   0.029 min)
Geometry relaxation              ...        0.360 sec (=   0.006 min)  21.1 %
XTB module                       ...        1.350 sec (=   0.022 min)  78.9 %
                             ****ORCA TERMINATED NORMALLY****
TOTAL RUN TIME: 0 days 0 hours 0 minutes 2 seconds 492 msec
