
                                 *****************
                                 * O   R   C   A *
                                 *****************

                                            #,                                       
                                            ###                                      
                                            ####                                     
                                            #####                                    
                                            ######                                   
                                           ########,                                 
                                     ,,################,,,,,                         
                               ,,#################################,,                 
                          ,,##########################################,,             
                       ,#########################################, ''#####,          
                    ,#############################################,,   '####,        
                  ,##################################################,,,,####,       
                ,###########''''           ''''###############################       
              ,#####''   ,,,,##########,,,,          '''####'''          '####       
            ,##' ,,,,###########################,,,                        '##       
           ' ,,###''''                  '''############,,,                           
         ,,##''                                '''############,,,,        ,,,,,,###''
      ,#''                                            '''#######################'''  
     '                                                          ''''####''''         
             ,#######,   #######,   ,#######,      ##                                
            ,#'     '#,  ##    ##  ,#'     '#,    #''#        ,####,   ,####,        
            ##       ##  ##   ,#'  ##            #'  '#       #'       #'  '#        
            ##       ##  #######   ##           ,######,      #####,   #    #        
            '#,     ,#'  ##    ##  '#,     ,#' ,#      #,     #,   #   #,  ,#        
             '#######'   ##     ##  '#######'  #'      '#     '####' # '####'        



                #########################################################
                #                        -***-                          #
                #          Department of theory and spectroscopy        #
                #                                                       #
                #                      Frank Neese                      #
                #                                                       #
                #     Directorship, Architecture, Infrastructure        #
                #                    SHARK, DRIVERS                     #
                #        Core code/Algorithms in most modules           #
                #                                                       #
                #        Max Planck Institute fuer Kohlenforschung      #
                #                Kaiser Wilhelm Platz 1                 #
                #                 D-45470 Muelheim/Ruhr                 #
                #                      Germany                          #
                #                                                       #
                #                  All rights reserved                  #
                #                        -***-                          #
                #########################################################


                         Program Version 6.0.1  -  RELEASE   -


 With contributions from (in alphabetic order):
[Max-Planck-Institut fuer Kohlenforschung]                               
  Daniel Aravena         : Magnetic Suceptibility                        
  Michael Atanasov       : Ab Initio Ligand Field Theory (pilot matlab implementation)
  Alexander A. Auer      : GIAO ZORA, VPT2 properties, NMR spectrum      
  Ute Becker             : All parallelization in ORCA, NUMFREQ, NUMCALC 
  Giovanni Bistoni       : ED, misc. LED, open-shell LED, HFLD           
  Martin Brehm           : Molecular dynamics                            
  Dmytro Bykov           : pre 5.0 version of the SCF Hessian            
  Marcos Casanova-Páez   : Triplet and SCS-CIS(D). UHF-(DLPNO)-IP/EA/STEOM-CCSD. UHF-CVS-IP/STEOM-CCSD   
  Vijay G. Chilkuri      : MRCI spin determinant printing, contributions to CSF-ICE 
  Pauline Colinet        : FMM embedding                                 
  Dipayan Datta          : RHF DLPNO-CCSD density                        
  Achintya Kumar Dutta   : EOM-CC, STEOM-CC                              
  Nicolas Foglia         : Exact transition moments, OPA infrastructure, MCD improvements    
  Dmitry Ganyushin       : Spin-Orbit,Spin-Spin,Magnetic field MRCI      
  Miquel Garcia-Rates    : C-PCM and meta-GGA Hessian, CCSD/C-PCM, Gaussian charge scheme 
  Tiago L. C. Gouveia    : GS-ROHF, GS-ROCIS                             
  Yang Guo               : DLPNO-NEVPT2, F12-NEVPT2, CIM, IAO-localization        
  Andreas Hansen         : Spin unrestricted coupled pair/coupled cluster methods 
  Ingolf Harden          : AUTO-CI MPn and infrastructure                
  Benjamin Helmich-Paris : MC-RPA, TRAH-(SCF,CASSCF), AVAS, COSX integrals, SCF dyn. polar. 
  Lee Huntington         : MR-EOM, pCC                                   
  Robert Izsak           : Overlap fitted RIJCOSX, COSX-SCS-MP3, EOM     
  Riya Kayal             : Wick's Theorem for AUTO-CI, AUTO-CI UHF-CCSDT 
  Emily Kempfer          : AUTO-CI, RHF CISDT and CCSDT                  
  Christian Kollmar      : KDIIS, OOCD, Brueckner-CCSD(T), CCSD density, CASPT2, CASPT2-K, improved NEVPT2 
  Axel Koslowski         : Symmetry handling                             
  Simone Kossmann        : meta-GGA functionals, TD-DFT gradient, OOMP2, (MP2 Hessian; deprecated post 5.0) 
  Lucas Lang             : DCDCAS                                        
  Marvin Lechner         : AUTO-CI (C++ implementation), FIC-MRCC        
  Spencer Leger          : CASSCF response                               
  Dagmar Lenk            : GEPOL surface, SMD, ORCA-2-JSON               
  Dimitrios Liakos       : Extrapolation schemes; Compound Job, initial MDCI parallelization 
  Dimitrios Manganas     : Further ROCIS development; embedding schemes. LFT, Crystal Embedding 
  Dimitrios Pantazis     : SARC Basis sets                               
  Anastasios Papadopoulos: AUTO-CI, single reference methods and gradients 
  Taras Petrenko         : pre 6.0 DFT Hessian and TD-DFT gradient, (ASA, deprecated), ECA, 1-Electron XAS/XES, NRVS 
  Peter Pinski           : DLPNO-MP2, DLPNO-MP2 Gradient                 
  Christoph Reimann      : Effective Core Potentials                     
  Marius Retegan         : Local ZFS, SOC                                
  Christoph Riplinger    : Optimizer, TS searches, QM/MM, DLPNO-CCSD(T), (RO)-DLPNO pert. Triples 
  Michael Roemelt        : Original ROCIS implementation                 
  Masaaki Saitow         : Open-shell DLPNO-CCSD energy and density      
  Barbara Sandhoefer     : DKH picture change effects                    
  Kantharuban Sivalingam : CASSCF convergence/infrastructure, NEVPT2 and variants, FIC-MRCI 
  Bernardo de Souza      : ESD, SOC TD-DFT                               
  Georgi L. Stoychev     : AutoAux, RI-MP2 NMR, DLPNO-MP2 response, X2C  
  Van Anh Tran           : RI-MP2 g-tensors                              
  Willem Van den Heuvel  : Paramagnetic NMR                              
  Zikuan Wang            : NOTCH, Electric field optimization            
  Frank Wennmohs         : Technical directorship and infrastructure     
  Hang Xu                : AUTO-CI-Response properties                   
                                                                         
[FACCTs GmbH]                                                            
  Markus Bursch, Miquel Garcia-Rates, Christoph Riplinger, Bernardo de Souza, Georgi L. Stoychev 
                                                                 
  APM, Basis sets (HGBS, AHGBS, def-TZVP (Ac-Lr), def2-XVPD (La-Lu)), CI-OPT, improved COSX, DLPNO-Multilevel,           
  DOCKER, DRACO, updates on ESD, GOAT, IRC, LR-CPCM, MBIS, meta-GGA TD-DFT gradient, ML-optimized integration grids, 
  MM, NACMEs, nearIR, NEB, NEB-TS, NL-DFT gradient (VV10), 2- and 3-layer-ONIOM, interface openCOSMO-RS, QMMM,   
  Crystal-QMMM, SF, symmetry and pop. for TD-DFT, r2SCAN hybrids, SOLVATOR                                   
                                                                         
[Other institutions]                                                     
  V. Asgeirsson          : NEB                                           
  Christoph Bannwarth    : sTDA-DFT, sTD-DFT, PBEh-3c, B97-3c, D3        
  Sebastian Ehlert       : rSCAN, r2SCAN, r2SCAN-3c, D4, dhf basis sets  
  Marvin Friede          : D4 for Fr, Ra, Ac-Lr                          
  Lars Goerigk           : TD-DFT with DH, B97 family of functionals     
  Stefan Grimme          : VdW corrections, initial TS optimization, DFT functionals, gCP, sTDA/sTD-DF 
  Waldemar Hujo          : DFT-NL                                        
  H. Jonsson             : NEB                                           
  Holger Kruse           : gCP                                           
  Marcel Mueller         : wB97X-3c, vDZP basis set                      
  Hagen Neugebauer       : wr2SCAN                                       
  Tobias Risthaus        : range-separated hybrid DFT                    
  Lukas Wittmann         : regularized MP2, r2SCAN double-hybrids, wr2SCAN        
                                                                         
We gratefully acknowledge several colleagues who have allowed us to      
interface, adapt or use parts of their codes:                            
  Ed Valeev, F. Pavosevic, A. Kumar             : LibInt (2-el integral package), F12 methods 
  Garnet Chan, S. Sharma, J. Yang, R. Olivares  : DMRG                   
  Ulf Ekstrom                                   : XCFun DFT Library      
  Mihaly Kallay                                 : mrcc  (arbitrary order and MRCC methods)
  Frank Weinhold                                : gennbo (NPA and NBO analysis)           
  Simon Mueller                                 : openCOSMO-RS                            
  Christopher J. Cramer and Donald G. Truhlar   : smd solvation model                     
  S Lehtola, MJT Oliveira, MAL Marques          : LibXC Library                           
  Liviu Ungur et al                             : ANISO software                          


 Your calculation uses the libint2 library for the computation of 2-el integrals
 For citations please refer to: http://libint.valeyev.net

 Your ORCA version has been built with support for libXC version: 6.2.2
 For citations please refer to: https://libxc.gitlab.io

 This ORCA versions uses:
   CBLAS   interface :  Fast vector & matrix operations
   LAPACKE interface :  Fast linear algebra routines
   SCALAPACK package :  Parallel linear algebra routines
   Shared memory     :  Shared parallel matrices
   BLAS/LAPACK       :  OpenBLAS 0.3.27  USE64BITINT DYNAMIC_ARCH NO_AFFINITY SkylakeX SINGLE_THREADED
        Core in use  :  SkylakeX
   Copyright (c) 2011-2014, The OpenBLAS Project


NOTE: MaxCore=2500 MB was set to SCF,MP2,MDCI,CIPSI,MRCI and CIS
      => If you want to overwrite this, your respective input block should be placed after the MaxCore statement


***************************************
The coordinates will be read from file: /home/mchrnwsk/qmmm/runs/expanding_reaction_scope/quinoline/optimise/lmf/lmf.xyz
***************************************


Your calculation utilizes the semiempirical GFN2-xTB method
Please cite in your paper:
C. Bannwarth, Ehlert S., S. Grimme,  J. Chem. Theory Comput., 15, (2019), 1652.
   

================================================================================

================================================================================
                                        WARNINGS
                       Please study these warnings very carefully!
================================================================================


WARNING: Geometry Optimization
  ===> : Switching off AutoStart
         For restart on a previous wavefunction, please use MOREAD

WARNING: Found dipole moment calculation with XTB calculation
  ===> : Switching off dipole moment calculation


================================================================================
                                       INPUT FILE
================================================================================
NAME = /home/mchrnwsk/qmmm/runs/expanding_reaction_scope/quinoline/optimise/lmf/0_LMF_opt_unrest/LMF_opt_unrest.inp
|  1>  # ----------------------------------------- #
|  2>  # QM Unrestrained Optimization for LMF      #
|  3>  # ----------------------------------------- #
|  4> 
|  5> ! XTB2 Opt PAL8
|  6> %maxcore 2500
|  7> 
|  8> *xyzfile -1 3 /home/mchrnwsk/qmmm/runs/expanding_reaction_scope/quinoline/optimise/lmf/lmf.xyz
|  9> 
| 10> 
| 11>                          ****END OF INPUT****
================================================================================

                       *****************************
                       * Geometry Optimization Run *
                       *****************************

Geometry optimization settings:
Update method            Update   .... BFGS
Choice of coordinates    CoordSys .... (2022) Redundant Internals
Initial Hessian          InHess   .... Almloef's Model
Max. no of cycles        MaxIter  .... 93

Convergence Tolerances:
Energy Change            TolE     ....  5.0000e-06 Eh
Max. Gradient            TolMAXG  ....  3.0000e-04 Eh/bohr
RMS Gradient             TolRMSG  ....  1.0000e-04 Eh/bohr
Max. Displacement        TolMAXD  ....  4.0000e-03 bohr
RMS Displacement         TolRMSD  ....  2.0000e-03 bohr
Strict Convergence                .... False

------------------------------------------------------------------------------
                        ORCA OPTIMIZATION COORDINATE SETUP
------------------------------------------------------------------------------

The optimization will be done in redundant internal coordinates (2022)
Making redundant internal coordinates   ...  (2022 redundants) done
Evaluating the initial hessian          ...  (Almloef) done
Evaluating the coordinates              ...  done
Calculating the B-matrix                .... done
Calculating the G-matrix                .... done
Diagonalizing the G-matrix              .... done
Small eigenvalue found = 1.717e-02
Small eigenvalue found = 2.992e-02
The first mode is                       ....   73
The number of degrees of freedom        ....   87

    -----------------------------------------------------------------
                    Redundant Internal Coordinates


    -----------------------------------------------------------------
         Definition                    Initial Value    Approx d2E/dq
    -----------------------------------------------------------------
      1. B(C   6,C   3)                  1.5069         0.406640   
      2. B(C   6,C   0)                  1.3617         0.693165   
      3. B(C   7,C   1)                  1.3768         0.655894   
      4. B(C   7,C   6)                  1.3914         0.621619   
      5. B(C   7,C   4)                  1.5070         0.406503   
      6. B(C  10,O   8)                  1.2157         1.061621   
      7. B(C  11,O   9)                  1.2185         1.050620   
      8. B(C  12,C   0)                  1.4091         0.582459   
      9. B(C  13,C  12)                  1.4131         0.573883   
     10. B(C  13,C   1)                  1.3926         0.618809   
     11. B(N  14,C  13)                  1.3787         0.583336   
     12. B(N  14,C   2)                  1.4651         0.424749   
     13. B(C  15,C  10)                  1.4798         0.449208   
     14. B(C  16,C  15)                  1.4723         0.461813   
     15. B(C  16,N  14)                  1.3625         0.618992   
     16. B(N  17,C  11)                  1.3406         0.671020   
     17. B(N  17,C  10)                  1.3532         0.640502   
     18. B(N  17,H   5)                  0.9700         0.501166   
     19. B(N  18,C  15)                  1.3085         0.754868   
     20. B(N  18,C  12)                  1.3396         0.673417   
     21. B(N  19,C  16)                  1.3225         0.716965   
     22. B(N  19,C  11)                  1.3306         0.695990   
     23. B(H  20,C   2)                  1.0899         0.360204   
     24. B(H  21,C   2)                  1.0901         0.360028   
     25. B(H  22,C   2)                  1.0900         0.360100   
     26. B(H  23,C   0)                  1.0799         0.373655   
     27. B(H  24,C   1)                  1.0800         0.373594   
     28. B(H  25,C   3)                  1.0900         0.360035   
     29. B(H  26,C   3)                  1.0900         0.360058   
     30. B(H  27,C   3)                  1.0900         0.360096   
     31. B(H  28,C   4)                  1.0900         0.360120   
     32. B(H  29,C   4)                  1.0900         0.360096   
     33. B(H  30,C   4)                  1.0900         0.360102   
     34. A(C   6,C   0,C  12)          119.9376         0.437921   
     35. A(C  12,C   0,H  23)          120.0318         0.351390   
     36. A(C   6,C   0,H  23)          120.0301         0.361930   
     37. A(C   7,C   1,C  13)          119.8739         0.438338   
     38. A(C  13,C   1,H  24)          120.0600         0.355000   
     39. A(C   7,C   1,H  24)          120.0661         0.358527   
     40. A(N  14,C   2,H  20)          109.4747         0.329279   
     41. A(N  14,C   2,H  21)          109.4665         0.329253   
     42. A(H  21,C   2,H  22)          109.4707         0.290830   
     43. A(H  20,C   2,H  22)          109.4754         0.290853   
     44. A(H  20,C   2,H  21)          109.4718         0.290844   
     45. A(N  14,C   2,H  22)          109.4684         0.329263   
     46. A(C   6,C   3,H  27)          109.4738         0.328879   
     47. A(H  25,C   3,H  26)          109.4711         0.290826   
     48. A(C   6,C   3,H  26)          109.4762         0.328873   
     49. A(C   6,C   3,H  25)          109.4725         0.328870   
     50. A(H  25,C   3,H  27)          109.4687         0.290831   
     51. A(H  26,C   3,H  27)          109.4650         0.290834   
     52. A(H  29,C   4,H  30)          109.4672         0.290839   
     53. A(C   7,C   4,H  30)          109.4730         0.328862   
     54. A(H  28,C   4,H  29)          109.4675         0.290841   
     55. A(H  28,C   4,H  30)          109.4763         0.290842   
     56. A(C   7,C   4,H  29)          109.4718         0.328861   
     57. A(C   7,C   4,H  28)          109.4716         0.328864   
     58. A(C   0,C   6,C   7)          120.7501         0.443098   
     59. A(C   0,C   6,C   3)          119.6244         0.410667   
     60. A(C   3,C   6,C   7)          119.6255         0.402832   
     61. A(C   4,C   7,C   6)          119.6879         0.402808   
     62. A(C   1,C   7,C   6)          120.6198         0.438696   
     63. A(C   1,C   7,C   4)          119.6923         0.406644   
     64. A(O   8,C  10,C  15)          121.4299         0.448341   
     65. A(C  15,C  10,N  17)          117.1403         0.409507   
     66. A(O   8,C  10,N  17)          121.4296         0.475181   
     67. A(N  17,C  11,N  19)          124.0612         0.443702   
     68. A(O   9,C  11,N  19)          117.9673         0.481585   
     69. A(O   9,C  11,N  17)          117.9715         0.478352   
     70. A(C  13,C  12,N  18)          120.9373         0.431641   
     71. A(C   0,C  12,N  18)          119.8379         0.432794   
     72. A(C   0,C  12,C  13)          119.2248         0.423322   
     73. A(C  12,C  13,N  14)          120.3366         0.420684   
     74. A(C   1,C  13,N  14)          120.0696         0.426391   
     75. A(C   1,C  13,C  12)          119.5938         0.427934   
     76. A(C   2,N  14,C  16)          120.7529         0.400449   
     77. A(C   2,N  14,C  13)          120.7604         0.396295   
     78. A(C  13,N  14,C  16)          118.4867         0.423637   
     79. A(C  16,C  15,N  18)          120.5086         0.423739   
     80. A(C  10,C  15,N  18)          122.2387         0.421649   
     81. A(C  10,C  15,C  16)          117.2528         0.389105   
     82. A(N  14,C  16,C  15)          119.0287         0.409037   
     83. A(C  15,C  16,N  19)          118.7041         0.419859   
     84. A(N  14,C  16,N  19)          122.2672         0.439630   
     85. A(C  10,N  17,C  11)          121.3032         0.437094   
     86. A(H   5,N  17,C  11)          119.3473         0.372819   
     87. A(H   5,N  17,C  10)          119.3492         0.369844   
     88. A(C  12,N  18,C  15)          120.7021         0.450573   
     89. A(C  11,N  19,C  16)          121.5382         0.449059   
     90. D(C   7,C   6,C   0,H  23)    179.7016         0.033785   
     91. D(C   3,C   6,C   0,H  23)     -0.2696         0.033785   
     92. D(C   0,C   6,C   3,H  25)     89.9944         0.012255   
     93. D(C   7,C   6,C   0,C  12)     -0.0287         0.033785   
     94. D(C   0,C   6,C   3,H  26)   -150.0019         0.012255   
     95. D(C   0,C   6,C   3,H  27)    -30.0049         0.012255   
     96. D(C   7,C   6,C   3,H  26)     30.0265         0.012255   
     97. D(C   3,C   6,C   0,C  12)    180.0000         0.033785   
     98. D(C   7,C   6,C   3,H  25)    -89.9772         0.012255   
     99. D(C   1,C   7,C   4,H  29)   -149.9981         0.012247   
    100. D(C   6,C   7,C   1,C  13)     -0.0434         0.029992   
    101. D(C   4,C   7,C   6,C   3)     -0.0019         0.026747   
    102. D(C   1,C   7,C   4,H  28)     90.0059         0.012247   
    103. D(C   1,C   7,C   6,C   3)   -179.9801         0.026747   
    104. D(C   1,C   7,C   6,C   0)      0.0487         0.026747   
    105. D(C   4,C   7,C   6,C   0)   -179.9731         0.026747   
    106. D(C   4,C   7,C   1,H  24)     -0.0255         0.029992   
    107. D(C   4,C   7,C   1,C  13)    179.9784         0.029992   
    108. D(C   6,C   7,C   4,H  29)     30.0235         0.012247   
    109. D(C   6,C   7,C   4,H  28)    -89.9725         0.012247   
    110. D(C   1,C   7,C   4,H  30)    -30.0017         0.012247   
    111. D(C   6,C   7,C   1,H  24)    179.9527         0.029992   
    112. D(N  18,C  12,C   0,H  23)      0.2943         0.023318   
    113. D(N  18,C  12,C   0,C   6)   -179.9753         0.023318   
    114. D(C  13,C  12,C   0,H  23)   -179.7257         0.023318   
    115. D(C  13,C  12,C   0,C   6)      0.0046         0.023318   
    116. D(N  14,C  13,C   1,H  24)     -0.0009         0.026491   
    117. D(N  14,C  13,C   1,C   7)    179.9952         0.026491   
    118. D(C  12,C  13,C   1,H  24)   -179.9769         0.026491   
    119. D(C   1,C  13,C  12,C   0)      0.0002         0.022605   
    120. D(C  12,C  13,C   1,C   7)      0.0192         0.026491   
    121. D(N  14,C  13,C  12,N  18)      0.0039         0.022605   
    122. D(N  14,C  13,C  12,C   0)   -179.9758         0.022605   
    123. D(C   1,C  13,C  12,N  18)    179.9799         0.022605   
    124. D(C  16,N  14,C  13,C   1)   -179.9992         0.027313   
    125. D(C   2,N  14,C  13,C  12)    179.9591         0.027313   
    126. D(C   2,N  14,C  13,C   1)     -0.0168         0.027313   
    127. D(C  16,N  14,C   2,H  21)    120.0043         0.015382   
    128. D(C  16,N  14,C   2,H  20)      0.0045         0.015382   
    129. D(C  13,N  14,C   2,H  22)     60.0170         0.015382   
    130. D(C  13,N  14,C   2,H  21)    -59.9777         0.015382   
    131. D(C  16,N  14,C  13,C  12)     -0.0233         0.027313   
    132. D(C  13,N  14,C   2,H  20)   -179.9776         0.015382   
    133. D(N  18,C  15,C  10,N  17)   -179.9140         0.013756   
    134. D(N  18,C  15,C  10,O   8)     -0.0661         0.013756   
    135. D(C  16,C  15,C  10,N  17)      0.1508         0.013756   
    136. D(C  16,C  15,C  10,O   8)    179.9987         0.013756   
    137. D(N  19,C  16,C  15,C  10)     -0.0624         0.014527   
    138. D(N  14,C  16,C  15,N  18)      0.0429         0.014527   
    139. D(N  14,C  16,C  15,C  10)    179.9793         0.014527   
    140. D(N  19,C  16,N  14,C  13)   -179.9555         0.031018   
    141. D(N  19,C  16,N  14,C   2)      0.0621         0.031018   
    142. D(C  15,C  16,N  14,C  13)      0.0012         0.031018   
    143. D(N  19,C  16,C  15,N  18)   -179.9988         0.014527   
    144. D(C  15,C  16,N  14,C   2)   -179.9812         0.031018   
    145. D(C  10,N  17,C  11,O   9)   -179.8990         0.036957   
    146. D(H   5,N  17,C  11,N  19)    179.9425         0.036957   
    147. D(H   5,N  17,C  11,O   9)     -0.0784         0.036957   
    148. D(C  11,N  17,C  10,C  15)     -0.1803         0.033396   
    149. D(C  11,N  17,C  10,O   8)    179.9718         0.033396   
    150. D(H   5,N  17,C  10,C  15)    179.9991         0.033396   
    151. D(C  10,N  17,C  11,N  19)      0.1218         0.036957   
    152. D(H   5,N  17,C  10,O   8)      0.1512         0.033396   
    153. D(C  12,N  18,C  15,C  16)     -0.0637         0.043339   
    154. D(C  12,N  18,C  15,C  10)   -179.9968         0.043339   
    155. D(C  15,N  18,C  12,C  13)      0.0412         0.033718   
    156. D(C  15,N  18,C  12,C   0)   -179.9792         0.033718   
    157. D(C  11,N  19,C  16,C  15)     -0.0025         0.038676   
    158. D(C  11,N  19,C  16,N  14)    179.9543         0.038676   
    159. D(C  16,N  19,C  11,N  17)     -0.0223         0.036235   
    160. D(C  16,N  19,C  11,O   9)    179.9985         0.036235   
    -----------------------------------------------------------------

Number of atoms                         .... 31
Number of degrees of freedom            .... 160


         *************************************************************
         *                GEOMETRY OPTIMIZATION CYCLE   1            *
         *************************************************************
---------------------------------
CARTESIAN COORDINATES (ANGSTROEM)
---------------------------------
  C     2.267200   -1.500900    0.000100
  C     2.309400    1.287700   -0.000100
  C    -0.069500    2.813700    0.001300
  C     4.745900   -1.600000    0.000100
  C     4.803800    1.282100   -0.001100
  H    -4.538100   -1.154800   -0.001200
  C     3.451400   -0.828600    0.000100
  C     3.479700    0.562500   -0.000500
  O    -2.623000   -2.714800    0.000500
  O    -4.626400    1.242200   -0.000900
  C    -2.553400   -1.501100    0.000800
  C    -3.586100    0.607700   -0.000600
  C     1.052800   -0.786200    0.000100
  C     1.083700    0.626600    0.000000
  N    -0.090700    1.348800    0.000500
  C    -1.248600   -0.803000    0.000200
  C    -1.271600    0.669100    0.000600
  N    -3.665800   -0.730500   -0.001500
  N    -0.111000   -1.449600    0.000600
  N    -2.441400    1.286100    0.000200
  H    -1.091700    3.191900    0.002000
  H     0.450000    3.169000    0.891300
  H     0.449200    3.170000   -0.888700
  H     2.258800   -2.580800   -0.004300
  H     2.341800    2.367200    0.000200
  H     5.058000   -1.786100   -1.027600
  H     5.513700   -1.021500    0.513900
  H     4.602500   -2.550500    0.514000
  H     5.123500    1.455600    1.026400
  H     5.547800    0.673600   -0.515200
  H     4.697900    2.237500   -0.515000

----------------------------
CARTESIAN COORDINATES (A.U.)
----------------------------
  NO LB    ZA    FRAG    MASS        X           Y           Z
   0 C   6.0000    0    12.011    4.284387   -2.836290    0.000189
   1 C   6.0000    0    12.011    4.364134    2.433400   -0.000189
   2 C   6.0000    0    12.011   -0.131336    5.317122    0.002457
   3 C   6.0000    0    12.011    8.968451   -3.023562    0.000189
   4 C   6.0000    0    12.011    9.077866    2.422818   -0.002079
   5 H   1.0000    0     1.008   -8.575766   -2.182256   -0.002268
   6 C   6.0000    0    12.011    6.522201   -1.565827    0.000189
   7 C   6.0000    0    12.011    6.575680    1.062971   -0.000945
   8 O   8.0000    0    15.999   -4.956752   -5.130229    0.000945
   9 O   8.0000    0    15.999   -8.742629    2.347418   -0.001701
  10 C   6.0000    0    12.011   -4.825227   -2.836668    0.001512
  11 C   6.0000    0    12.011   -6.776747    1.148387   -0.001134
  12 C   6.0000    0    12.011    1.989504   -1.485703    0.000189
  13 C   6.0000    0    12.011    2.047896    1.184102    0.000000
  14 N   7.0000    0    14.007   -0.171398    2.548863    0.000945
  15 C   6.0000    0    12.011   -2.359512   -1.517450    0.000378
  16 C   6.0000    0    12.011   -2.402976    1.264416    0.001134
  17 N   7.0000    0    14.007   -6.927358   -1.380445   -0.002835
  18 N   7.0000    0    14.007   -0.209760   -2.739347    0.001134
  19 N   7.0000    0    14.007   -4.613577    2.430377    0.000378
  20 H   1.0000    0     1.008   -2.063014    6.031817    0.003779
  21 H   1.0000    0     1.008    0.850377    5.988542    1.684313
  22 H   1.0000    0     1.008    0.848865    5.990432   -1.679400
  23 H   1.0000    0     1.008    4.268513   -4.877005   -0.008126
  24 H   1.0000    0     1.008    4.425361    4.473360    0.000378
  25 H   1.0000    0     1.008    9.558235   -3.375240   -1.941883
  26 H   1.0000    0     1.008   10.419383   -1.930355    0.971130
  27 H   1.0000    0     1.008    8.697465   -4.819747    0.971319
  28 H   1.0000    0     1.008    9.682012    2.750685    1.939615
  29 H   1.0000    0     1.008   10.483823    1.272920   -0.973587
  30 H   1.0000    0     1.008    8.877744    4.228262   -0.973209

      -----------------------------------------------------------      
     |                   =====================                   |     
     |                           x T B                           |     
     |                   =====================                   |     
     |                         S. Grimme                         |     
     |          Mulliken Center for Theoretical Chemistry        |     
     |                    University of Bonn                     |     
      -----------------------------------------------------------      

   * xtb version 6.7.1 (edcfbbe) compiled by 'albert@albert-system' on 2024-07-22

   xtb is free software: you can redistribute it and/or modify it under
   the terms of the GNU Lesser General Public License as published by
   the Free Software Foundation, either version 3 of the License, or
   (at your option) any later version.
   
   xtb is distributed in the hope that it will be useful,
   but WITHOUT ANY WARRANTY; without even the implied warranty of
   MERCHANTABILITY or FITNESS FOR A PARTICULAR PURPOSE.  See the
   GNU Lesser General Public License for more details.
   
   Cite this work as:
   * C. Bannwarth, E. Caldeweyher, S. Ehlert, A. Hansen, P. Pracht,
     J. Seibert, S. Spicher, S. Grimme, WIREs Comput. Mol. Sci., 2020, 11,
     e01493. DOI: 10.1002/wcms.1493
   
   for GFN2-xTB:
   * C. Bannwarth, S. Ehlert and S. Grimme., J. Chem. Theory Comput., 2019,
     15, 1652-1671. DOI: 10.1021/acs.jctc.8b01176
   for GFN1-xTB:
   * S. Grimme, C. Bannwarth, P. Shushkov, J. Chem. Theory Comput., 2017,
     13, 1989-2009. DOI: 10.1021/acs.jctc.7b00118
   for GFN0-xTB:
   * P. Pracht, E. Caldeweyher, S. Ehlert, S. Grimme, ChemRxiv, 2019, preprint.
     DOI: 10.26434/chemrxiv.8326202.v1
   for GFN-FF:
   * S. Spicher and S. Grimme, Angew. Chem. Int. Ed., 2020, 59, 15665-15673.
     DOI: 10.1002/anie.202004239
   
   for ALPB and GBSA implicit solvation:
   * S. Ehlert, M. Stahn, S. Spicher, S. Grimme, J. Chem. Theory Comput.,
     2021, 17, 4250-4261. DOI: 10.1021/acs.jctc.1c00471
   
   for ddCOSMO and CPCM-X implicit solvation:
   * M. Stahn, S. Ehlert, S. Grimme, J. Phys. Chem. A,
     2023, XX, XXXX-XXXX. DOI: 10.1021/acs.jpca.3c04382
   
   for DFT-D4:
   * E. Caldeweyher, C. Bannwarth and S. Grimme, J. Chem. Phys., 2017,
     147, 034112. DOI: 10.1063/1.4993215
   * E. Caldeweyher, S. Ehlert, A. Hansen, H. Neugebauer, S. Spicher,
     C. Bannwarth and S. Grimme, J. Chem. Phys., 2019, 150, 154122.
     DOI: 10.1063/1.5090222
   * E. Caldeweyher, J.-M. Mewes, S. Ehlert and S. Grimme, Phys. Chem. Chem. Phys.
     2020, 22, 8499-8512. DOI: 10.1039/D0CP00502A
   
   for sTDA-xTB:
   * S. Grimme and C. Bannwarth, J. Chem. Phys., 2016, 145, 054103.
     DOI: 10.1063/1.4959605
   
   in the mass-spec context:
   * V. Asgeirsson, C. Bauer and S. Grimme, Chem. Sci., 2017, 8, 4879.
     DOI: 10.1039/c7sc00601b
   * J. Koopman and S. Grimme, ACS Omega 2019, 4, 12, 15120-15133.
     DOI: 10.1021/acsomega.9b02011
   
   for metadynamics refer to:
   * S. Grimme, J. Chem. Theory Comput., 2019, 155, 2847-2862
     DOI: 10.1021/acs.jctc.9b00143
   
   for SPH calculations refer to:
   * S. Spicher and S. Grimme, J. Chem. Theory Comput., 2021, 17, 1701-1714
     DOI: 10.1021/acs.jctc.0c01306
   
   for ONIOM refer to:
   * C. Plett, A. Katbashev, S. Ehlert, S. Grimme, M. Bursch,
     Phys. Chem. Chem. Phys., 2023, 25, 17860-17868. DOI: 10.1039/D3CP02178E
   
   for DIPRO refer to:
   * J. Kohn, N. Gildemeister, S. Grimme, D. Fazzi, A. Hansen,
     J. Chem. Phys., 2023, just accepted.
   
   for PTB refer to:
   * S. Grimme, M. Mueller, A. Hansen, J. Chem. Phys., 2023, 158, 124111.
     DOI: 10.1063/5.0137838
   
   with help from (in alphabetical order)
   P. Atkinson, C. Bannwarth, F. Bohle, G. Brandenburg, E. Caldeweyher
   M. Checinski, S. Dohm, S. Ehlert, S. Ehrlich, I. Gerasimov, C. Hölzer
   A. Katbashev, J. Kohn, J. Koopman, C. Lavigne, S. Lehtola, F. März, M. Müller,
   F. Musil, H. Neugebauer, J. Pisarek, C. Plett, P. Pracht, F. Pultar,
   J. Seibert, P. Shushkov, S. Spicher, M. Stahn, M. Steiner, T. Strunk,
   J. Stückrath, T. Rose, and J. Unsleber
   
 * started run on 2025/05/13 at 14:56:55.449     
   ID    Z sym.   atoms
    1    6 C      1-5, 7, 8, 11-14, 16, 17
    2    1 H      6, 21-31
    3    8 O      9, 10
    4    7 N      15, 18-20

           -------------------------------------------------
          |                Calculation Setup                |
           -------------------------------------------------

          program call               : /home/mchrnwsk/orca_6_0_1_linux_x86-64_shared_openmpi416/otool_xtb /home/mchrnwsk/qmmm/runs/expanding_reaction_scope/quinoline/optimise/lmf/0_LMF_opt_unrest/LMF_opt_unrest_XTB.xyz --grad -c -1 -u 2 -P 8 --namespace /home/mchrnwsk/qmmm/runs/expanding_reaction_scope/quinoline/optimise/lmf/0_LMF_opt_unrest/LMF_opt_unrest --input /home/mchrnwsk/qmmm/runs/expanding_reaction_scope/quinoline/optimise/lmf/0_LMF_opt_unrest/LMF_opt_unrest_XTB.input.tmp --acc 0.200000
          calculation namespace      : /home/mchrnwsk/qmmm/runs/expanding_reaction_scope/quinoline/optimise/lmf/0_LMF_opt_unrest/LMF_opt_unrest
          coordinate file            : /home/mchrnwsk/qmmm/runs/expanding_reaction_scope/quinoline/optimise/lmf/0_LMF_opt_unrest/LMF_opt_unrest_XTB.xyz
          omp threads                :                     8


           -------------------------------------------------
          |                 G F N 2 - x T B                 |
           -------------------------------------------------

        Reference                      10.1021/acs.jctc.8b01176
      * Hamiltonian:
        H0-scaling (s, p, d)           1.850000    2.230000    2.230000
        zeta-weighting                 0.500000
      * Dispersion:
        s8                             2.700000
        a1                             0.520000
        a2                             5.000000
        s9                             5.000000
      * Repulsion:
        kExp                           1.500000    1.000000
        rExp                           1.000000
      * Coulomb:
        alpha                          2.000000
        third order                    shell-resolved
        anisotropic                    true
        a3                             3.000000
        a5                             4.000000
        cn-shift                       1.200000
        cn-exp                         4.000000
        max-rad                        5.000000


          ...................................................
          :                      SETUP                      :
          :.................................................:
          :  # basis functions                  88          :
          :  # atomic orbitals                  88          :
          :  # shells                           50          :
          :  # electrons                        97          :
          :  max. iterations                   250          :
          :  Hamiltonian                  GFN2-xTB          :
          :  restarted?                      false          :
          :  GBSA solvation                  false          :
          :  PC potential                    false          :
          :  electronic temp.          300.0000000     K    :
          :  accuracy                    0.2000000          :
          :  -> integral cutoff          0.3198970E+02      :
          :  -> integral neglect         0.2000000E-08      :
          :  -> SCF convergence          0.2000000E-06 Eh   :
          :  -> wf. convergence          0.2000000E-04 e    :
          :  Broyden damping             0.4000000          :
          :  net charge                         -1          :
          :  unpaired electrons                  2          :
          ...................................................

 iter      E             dE          RMSdq      gap      omega  full diag
   1    -54.6729898 -0.546730E+02  0.439E+00    1.42       0.0  T
   2    -54.8278665 -0.154877E+00  0.259E+00    1.26       1.0  T
   3    -54.8381093 -0.102429E-01  0.141E+00    1.52       1.0  T
   4    -54.8409902 -0.288087E-02  0.596E-01    1.32       1.0  T
   5    -54.8498965 -0.890627E-02  0.126E-01    1.42       1.0  T
   6    -54.8500915 -0.194989E-03  0.615E-02    1.41       1.0  T
   7    -54.8501203 -0.288285E-04  0.268E-02    1.41       1.0  T
   8    -54.8501229 -0.260385E-05  0.115E-02    1.41       1.6  T
   9    -54.8501259 -0.301701E-05  0.455E-03    1.41       3.9  T
  10    -54.8501261 -0.163299E-06  0.152E-03    1.41      11.8  T
  11    -54.8501261 -0.105514E-07  0.575E-04    1.41      31.2  T
  12    -54.8501261 -0.171885E-08  0.284E-04    1.41      63.3  T
  13    -54.8501261 -0.108851E-08  0.830E-05    1.41     216.3  T
  14    -54.8501261 -0.563958E-10  0.419E-05    1.41     429.1  T

   *** convergence criteria satisfied after 14 iterations ***

         #    Occupation            Energy/Eh            Energy/eV
      -------------------------------------------------------------
         1        2.0000           -0.5550027             -15.1024
       ...           ...                  ...                  ...
        43        2.0000           -0.2675522              -7.2805
        44        2.0000           -0.2578016              -7.0151
        45        2.0000           -0.2566176              -6.9829
        46        2.0000           -0.2417959              -6.5796
        47        2.0000           -0.2390827              -6.5058
        48        2.0000           -0.2066057              -5.6220
        49        1.0000           -0.1587224              -4.3191 (HOMO)
        50                         -0.1068970              -2.9088 (LUMO)
        51                         -0.0850744              -2.3150
        52                         -0.0645772              -1.7572
        53                         -0.0337808              -0.9192
        54                          0.0289056               0.7866
       ...                                ...                  ...
        88                          0.8610597              23.4306
      -------------------------------------------------------------
                  HL-Gap            0.0518254 Eh            1.4102 eV
             Fermi-level           -0.1577369 Eh           -4.2922 eV
 
 transition dipole moment (au) for excitation:          48          49
     X       Y       Z   
  -0.0003   0.0027   0.0863  total (au/Debye):    0.086   0.219
 dE (eV)             :    1.303
 oscillator strength :  0.33658E-03

 SCC (total)                   0 d,  0 h,  0 min,  0.018 sec
 SCC setup                      ...        0 min,  0.000 sec (  0.695%)
 Dispersion                     ...        0 min,  0.000 sec (  0.799%)
 classical contributions        ...        0 min,  0.000 sec (  0.083%)
 integral evaluation            ...        0 min,  0.001 sec (  4.200%)
 iterations                     ...        0 min,  0.013 sec ( 69.730%)
 molecular gradient             ...        0 min,  0.002 sec (  9.904%)
 printout                       ...        0 min,  0.003 sec ( 14.523%)

         :::::::::::::::::::::::::::::::::::::::::::::::::::::
         ::                     SUMMARY                     ::
         :::::::::::::::::::::::::::::::::::::::::::::::::::::
         :: total energy             -54.081056829278 Eh    ::
         :: gradient norm              0.135093656745 Eh/a0 ::
         :: HOMO-LUMO gap              1.410239789522 eV    ::
         ::.................................................::
         :: SCC energy               -54.850196963949 Eh    ::
         :: -> isotropic ES            0.191113180626 Eh    ::
         :: -> anisotropic ES          0.011272592140 Eh    ::
         :: -> anisotropic XC          0.019405766350 Eh    ::
         :: -> dispersion             -0.035804208988 Eh    ::
         :: repulsion energy           0.769140134671 Eh    ::
         :: add. restraining           0.000000000000 Eh    ::
         :: total charge              -1.000000000000 e     ::
         :::::::::::::::::::::::::::::::::::::::::::::::::::::


Property printout bound to 'properties.out'

           -------------------------------------------------
          | TOTAL ENERGY              -54.081056829278 Eh   |
          | GRADIENT NORM               0.135093656745 Eh/α |
          | HOMO-LUMO GAP               1.410239789522 eV   |
           -------------------------------------------------

------------------------------------------------------------------------
 * finished run on 2025/05/13 at 14:56:55.473     
------------------------------------------------------------------------
 total:
 * wall-time:     0 d,  0 h,  0 min,  0.024 sec
 *  cpu-time:     0 d,  0 h,  0 min,  0.183 sec
 * ratio c/w:     7.642 speedup
 SCF:
 * wall-time:     0 d,  0 h,  0 min,  0.018 sec
 *  cpu-time:     0 d,  0 h,  0 min,  0.145 sec
 * ratio c/w:     7.893 speedup


-------------------------   --------------------
FINAL SINGLE POINT ENERGY       -54.081056829280
-------------------------   --------------------


-------------
DIPOLE MOMENT
-------------
                                X             Y             Z
Total Dipole Moment    :      4.02300       1.32600      -0.00000
                        -----------------------------------------
Magnitude (a.u.)       :      4.23589
Magnitude (Debye)      :     10.76679

------------------------------------------------------------------------------
                         ORCA GEOMETRY RELAXATION STEP
------------------------------------------------------------------------------

Reading the OPT-File                    .... done
Getting information on internals        .... done
Copying old internal coords+grads       .... done
Making the new internal coordinates     .... (2022 redundants) done
Validating the new internal coordinates .... (2022 redundants) done
Calculating the B-matrix                .... done
Calculating the G,G- and P matrices     .... done
Transforming gradient to internals      .... done
Projecting the internal gradient        .... done
Number of atoms                         ....  31
Number of internal coordinates          .... 160
Current Energy                          ....   -54.081056829 Eh
Current gradient norm                   ....     0.135093657 Eh/bohr
Maximum allowed component of the step   ....  0.300
Current trust radius                    ....  0.300
Evaluating the initial hessian          ....  (Almloef) done
Projecting the Hessian                  .... done
Forming the augmented Hessian           .... done
Diagonalizing the augmented Hessian     .... done
Last element of RFO vector              ....  0.966292783
Lowest eigenvalues of augmented Hessian:
 -0.026621811  0.012250540  0.012844732  0.015381942  0.018960948
Length of the computed step             ....  0.266426122
The final length of the internal step   ....  0.266426122
Converting the step to Cartesian space:
 Initial RMS(Int)=    0.0210628344
Transforming coordinates:
 Iter   0:  RMS(Cart)=    0.0701661349 RMS(Int)=    1.6466473073
 Iter   5:  RMS(Cart)=    0.0000000292 RMS(Int)=    0.0000000218
done
Storing new coordinates                 .... done

                                .--------------------.
          ----------------------|Geometry convergence|-------------------------
          Item                value                   Tolerance       Converged
          ---------------------------------------------------------------------
          RMS gradient        0.0095070609            0.0001000000      NO
          MAX gradient        0.0458346400            0.0003000000      NO
          RMS step            0.0210628344            0.0020000000      NO
          MAX step            0.0720020283            0.0040000000      NO
          ........................................................
          Max(Bonds)      0.0381      Max(Angles)    3.18
          Max(Dihed)        2.75      Max(Improp)    0.00
          ---------------------------------------------------------------------

The optimization has not yet converged - more geometry cycles are needed


    ---------------------------------------------------------------------------
                         Redundant Internal Coordinates
                            (Angstroem and degrees)

        Definition                    Value    dE/dq     Step     New-Value
    ----------------------------------------------------------------------------
     1. B(C   6,C   3)                1.5069 -0.005717  0.0070    1.5139   
     2. B(C   6,C   0)                1.3617 -0.020907  0.0157    1.3774   
     3. B(C   7,C   1)                1.3768 -0.017655  0.0139    1.3907   
     4. B(C   7,C   6)                1.3914 -0.012856  0.0111    1.4025   
     5. B(C   7,C   4)                1.5070 -0.005539  0.0068    1.5138   
     6. B(C  10,O   8)                1.2157 -0.026287  0.0128    1.2285   
     7. B(C  11,O   9)                1.2185 -0.033094  0.0163    1.2348   
     8. B(C  12,C   0)                1.4091  0.001533 -0.0016    1.4075   
     9. B(C  13,C  12)                1.4131 -0.005083  0.0039    1.4171   
    10. B(C  13,C   1)                1.3926 -0.000685  0.0002    1.3928   
    11. B(N  14,C  13)                1.3787 -0.011114  0.0094    1.3881   
    12. B(N  14,C   2)                1.4651  0.016471 -0.0193    1.4457   
    13. B(C  15,C  10)                1.4798  0.016594 -0.0190    1.4608   
    14. B(C  16,C  15)                1.4723  0.021455 -0.0249    1.4474   
    15. B(C  16,N  14)                1.3625 -0.001143  0.0007    1.3632   
    16. B(N  17,C  11)                1.3406 -0.045835  0.0358    1.3764   
    17. B(N  17,C  10)                1.3532 -0.026248  0.0216    1.3748   
    18. B(N  17,H   5)                0.9700 -0.038002  0.0381    1.0081   
    19. B(N  18,C  15)                1.3085 -0.024119  0.0165    1.3250   
    20. B(N  18,C  12)                1.3396 -0.002526  0.0022    1.3418   
    21. B(N  19,C  16)                1.3225 -0.001008  0.0001    1.3227   
    22. B(N  19,C  11)                1.3306 -0.010683  0.0082    1.3388   
    23. B(H  20,C   2)                1.0899  0.002033 -0.0028    1.0871   
    24. B(H  21,C   2)                1.0901 -0.001554  0.0021    1.0922   
    25. B(H  22,C   2)                1.0900 -0.001571  0.0021    1.0921   
    26. B(H  23,C   0)                1.0799  0.001345 -0.0018    1.0782   
    27. B(H  24,C   1)                1.0800  0.001223 -0.0016    1.0784   
    28. B(H  25,C   3)                1.0900 -0.000233  0.0003    1.0904   
    29. B(H  26,C   3)                1.0900  0.003379 -0.0046    1.0854   
    30. B(H  27,C   3)                1.0900  0.001770 -0.0024    1.0876   
    31. B(H  28,C   4)                1.0900 -0.000871  0.0012    1.0912   
    32. B(H  29,C   4)                1.0900  0.003686 -0.0050    1.0850   
    33. B(H  30,C   4)                1.0900  0.001096 -0.0015    1.0885   
    34. A(C   6,C   0,C  12)          119.94 -0.009172    1.20    121.14   
    35. A(C  12,C   0,H  23)          120.03  0.008944   -1.26    118.77   
    36. A(C   6,C   0,H  23)          120.03  0.000224    0.06    120.09   
    37. A(C   7,C   1,C  13)          119.87 -0.008268    1.04    120.91   
    38. A(C  13,C   1,H  24)          120.06  0.001356   -0.11    119.95   
    39. A(C   7,C   1,H  24)          120.07  0.006912   -0.93    119.13   
    40. A(N  14,C   2,H  20)          109.47  0.009780   -1.72    107.76   
    41. A(N  14,C   2,H  21)          109.47 -0.002662    0.47    109.93   
    42. A(H  21,C   2,H  22)          109.47 -0.000495    0.36    109.83   
    43. A(H  20,C   2,H  22)          109.48 -0.001853    0.20    109.68   
    44. A(H  20,C   2,H  21)          109.47 -0.002330    0.23    109.71   
    45. A(N  14,C   2,H  22)          109.47 -0.002440    0.45    109.92   
    46. A(C   6,C   3,H  27)          109.47 -0.000589    0.00    109.47   
    47. A(H  25,C   3,H  26)          109.47  0.003106   -0.24    109.23   
    48. A(C   6,C   3,H  26)          109.48 -0.008117    1.46    110.93   
    49. A(C   6,C   3,H  25)          109.47 -0.002199    0.40    109.87   
    50. A(H  25,C   3,H  27)          109.47  0.003757   -0.90    108.57   
    51. A(H  26,C   3,H  27)          109.47  0.004042   -0.72    108.74   
    52. A(H  29,C   4,H  30)          109.47  0.004276   -0.78    108.69   
    53. A(C   7,C   4,H  30)          109.47 -0.001200    0.11    109.58   
    54. A(H  28,C   4,H  29)          109.47  0.003298   -0.28    109.19   
    55. A(H  28,C   4,H  30)          109.48  0.004209   -0.95    108.53   
    56. A(C   7,C   4,H  29)          109.47 -0.007621    1.37    110.84   
    57. A(C   7,C   4,H  28)          109.47 -0.002963    0.53    110.01   
    58. A(C   0,C   6,C   7)          120.75  0.007273   -0.80    119.95   
    59. A(C   0,C   6,C   3)          119.62  0.008010   -1.14    118.48   
    60. A(C   3,C   6,C   7)          119.63 -0.015283    1.95    121.57   
    61. A(C   4,C   7,C   6)          119.69 -0.017262    2.22    121.91   
    62. A(C   1,C   7,C   6)          120.62  0.007757   -0.88    119.74   
    63. A(C   1,C   7,C   4)          119.69  0.009505   -1.34    118.35   
    64. A(O   8,C  10,C  15)          121.43 -0.011922    1.47    122.90   
    65. A(C  15,C  10,N  17)          117.14  0.010421   -1.32    115.82   
    66. A(O   8,C  10,N  17)          121.43  0.001500   -0.14    121.29   
    67. A(N  17,C  11,N  19)          124.06  0.028146   -3.18    120.88   
    68. A(O   9,C  11,N  19)          117.97 -0.019007    2.14    120.11   
    69. A(O   9,C  11,N  17)          117.97 -0.009138    1.04    119.01   
    70. A(C  13,C  12,N  18)          120.94 -0.006088    0.81    121.75   
    71. A(C   0,C  12,N  18)          119.84  0.003464   -0.34    119.50   
    72. A(C   0,C  12,C  13)          119.22  0.002624   -0.47    118.76   
    73. A(C  12,C  13,N  14)          120.34  0.010401   -1.35    118.99   
    74. A(C   1,C  13,N  14)          120.07 -0.010187    1.43    121.50   
    75. A(C   1,C  13,C  12)          119.59 -0.000214   -0.08    119.51   
    76. A(C   2,N  14,C  16)          120.75  0.014566   -1.85    118.90   
    77. A(C   2,N  14,C  13)          120.76 -0.004989    0.78    121.54   
    78. A(C  13,N  14,C  16)          118.49 -0.009578    1.07    119.56   
    79. A(C  16,C  15,N  18)          120.51 -0.009545    1.31    121.82   
    80. A(C  10,C  15,N  18)          122.24  0.011964   -1.34    120.90   
    81. A(C  10,C  15,C  16)          117.25 -0.002419    0.03    117.28   
    82. A(N  14,C  16,C  15)          119.03  0.004160   -0.55    118.48   
    83. A(C  15,C  16,N  19)          118.70 -0.027140    3.16    121.87   
    84. A(N  14,C  16,N  19)          122.27  0.022980   -2.62    119.65   
    85. A(C  10,N  17,C  11)          121.30 -0.014513    2.12    123.43   
    86. A(H   5,N  17,C  11)          119.35  0.007472   -1.09    118.26   
    87. A(H   5,N  17,C  10)          119.35  0.007041   -1.03    118.31   
    88. A(C  12,N  18,C  15)          120.70  0.010650   -1.29    119.41   
    89. A(C  11,N  19,C  16)          121.54  0.005505   -0.82    120.72   
    90. D(C   7,C   6,C   0,H  23)    179.70  0.000348   -0.22    179.48   
    91. D(C   3,C   6,C   0,H  23)     -0.27  0.000327   -0.38     -0.65   
    92. D(C   0,C   6,C   3,H  25)     89.99  0.000003    1.90     91.89   
    93. D(C   7,C   6,C   0,C  12)     -0.03  0.001178   -1.10     -1.13   
    94. D(C   0,C   6,C   3,H  26)   -150.00 -0.002511    2.75   -147.26   
    95. D(C   0,C   6,C   3,H  27)    -30.00 -0.002891    2.75    -27.25   
    96. D(C   7,C   6,C   3,H  26)     30.03 -0.002539    2.59     32.62   
    97. D(C   3,C   6,C   0,C  12)    180.00  0.001156   -1.25    178.75   
    98. D(C   7,C   6,C   3,H  25)    -89.98 -0.000025    1.75    -88.23   
    99. D(C   1,C   7,C   4,H  29)   -150.00 -0.002379    2.56   -147.44   
   100. D(C   6,C   7,C   1,C  13)     -0.04  0.000953   -0.91     -0.96   
   101. D(C   4,C   7,C   6,C   3)     -0.00 -0.001261    1.50      1.50   
   102. D(C   1,C   7,C   4,H  28)     90.01  0.000062    1.74     91.74   
   103. D(C   1,C   7,C   6,C   3)   -179.98 -0.001560    1.68   -178.30   
   104. D(C   1,C   7,C   6,C   0)      0.05 -0.001588    1.52      1.57   
   105. D(C   4,C   7,C   6,C   0)   -179.97 -0.001289    1.35   -178.62   
   106. D(C   4,C   7,C   1,H  24)     -0.03  0.000202   -0.26     -0.29   
   107. D(C   4,C   7,C   1,C  13)    179.98  0.000659   -0.74    179.24   
   108. D(C   6,C   7,C   4,H  29)     30.02 -0.002675    2.73     32.76   
   109. D(C   6,C   7,C   4,H  28)    -89.97 -0.000234    1.91    -88.06   
   110. D(C   1,C   7,C   4,H  30)    -30.00 -0.002543    2.51    -27.49   
   111. D(C   6,C   7,C   1,H  24)    179.95  0.000496   -0.43    179.52   
   112. D(N  18,C  12,C   0,H  23)      0.29  0.000412   -0.44     -0.14   
   113. D(N  18,C  12,C   0,C   6)   -179.98 -0.000441    0.44   -179.54   
   114. D(C  13,C  12,C   0,H  23)   -179.73  0.000695   -0.78   -180.50   
   115. D(C  13,C  12,C   0,C   6)      0.00 -0.000158    0.10      0.10   
   116. D(N  14,C  13,C   1,H  24)     -0.00  0.000331   -0.34     -0.34   
   117. D(N  14,C  13,C   1,C   7)    180.00 -0.000126    0.14    180.13   
   118. D(C  12,C  13,C   1,H  24)   -179.98  0.000519   -0.56   -180.54   
   119. D(C   1,C  13,C  12,C   0)      0.00 -0.000463    0.49      0.49   
   120. D(C  12,C  13,C   1,C   7)      0.02  0.000063   -0.08     -0.06   
   121. D(N  14,C  13,C  12,N  18)      0.00  0.000019   -0.08     -0.07   
   122. D(N  14,C  13,C  12,C   0)   -179.98 -0.000269    0.27   -179.71   
   123. D(C   1,C  13,C  12,N  18)    179.98 -0.000175    0.14    180.12   
   124. D(C  16,N  14,C  13,C   1)   -180.00  0.000289   -0.19   -180.19   
   125. D(C   2,N  14,C  13,C  12)    179.96 -0.000223    0.08    180.04   
   126. D(C   2,N  14,C  13,C   1)     -0.02 -0.000031   -0.14     -0.16   
   127. D(C  16,N  14,C   2,H  21)    120.00  0.001145   -0.36    119.65   
   128. D(C  16,N  14,C   2,H  20)      0.00 -0.000359    0.12      0.13   
   129. D(C  13,N  14,C   2,H  22)     60.02 -0.002253    0.60     60.61   
   130. D(C  13,N  14,C   2,H  21)    -59.98  0.001476   -0.41    -60.38   
   131. D(C  16,N  14,C  13,C  12)     -0.02  0.000096    0.03      0.01   
   132. D(C  13,N  14,C   2,H  20)   -179.98 -0.000028    0.07   -179.91   
   133. D(N  18,C  15,C  10,N  17)   -179.91  0.000030   -0.06   -179.97   
   134. D(N  18,C  15,C  10,O   8)     -0.07 -0.000045    0.04     -0.02   
   135. D(C  16,C  15,C  10,N  17)      0.15  0.000056   -0.05      0.10   
   136. D(C  16,C  15,C  10,O   8)    180.00 -0.000019    0.04    180.04   
   137. D(N  19,C  16,C  15,C  10)     -0.06  0.000010    0.02     -0.04   
   138. D(N  14,C  16,C  15,N  18)      0.04  0.000063   -0.02      0.02   
   139. D(N  14,C  16,C  15,C  10)    179.98  0.000052   -0.02    179.95   
   140. D(N  19,C  16,N  14,C  13)   -179.96 -0.000068   -0.04   -179.99   
   141. D(N  19,C  16,N  14,C   2)      0.06  0.000255   -0.09     -0.02   
   142. D(C  15,C  16,N  14,C  13)      0.00 -0.000134    0.01      0.01   
   143. D(N  19,C  16,C  15,N  18)   -180.00  0.000021    0.02   -179.97   
   144. D(C  15,C  16,N  14,C   2)   -179.98  0.000189   -0.04   -180.02   
   145. D(C  10,N  17,C  11,O   9)   -179.90  0.000011   -0.01   -179.91   
   146. D(H   5,N  17,C  11,N  19)    179.94  0.000014   -0.01    179.94   
   147. D(H   5,N  17,C  11,O   9)     -0.08 -0.000012    0.01     -0.07   
   148. D(C  11,N  17,C  10,C  15)     -0.18 -0.000047    0.05     -0.13   
   149. D(C  11,N  17,C  10,O   8)    179.97  0.000049   -0.05    179.92   
   150. D(H   5,N  17,C  10,C  15)    180.00 -0.000025    0.03    180.03   
   151. D(C  10,N  17,C  11,N  19)      0.12  0.000036   -0.03      0.09   
   152. D(H   5,N  17,C  10,O   8)      0.15  0.000071   -0.07      0.08   
   153. D(C  12,N  18,C  15,C  16)     -0.06  0.000046   -0.02     -0.08   
   154. D(C  12,N  18,C  15,C  10)   -180.00  0.000068   -0.02   -180.01   
   155. D(C  15,N  18,C  12,C  13)      0.04 -0.000080    0.07      0.11   
   156. D(C  15,N  18,C  12,C   0)   -179.98  0.000210   -0.28   -180.26   
   157. D(C  11,N  19,C  16,C  15)     -0.00 -0.000022    0.01      0.01   
   158. D(C  11,N  19,C  16,N  14)    179.95 -0.000074    0.06    180.01   
   159. D(C  16,N  19,C  11,N  17)     -0.02 -0.000002   -0.01     -0.03   
   160. D(C  16,N  19,C  11,O   9)    180.00  0.000022   -0.02    179.98   
    ----------------------------------------------------------------------------

Geometry step timings:
Preparation and reading OPT file:      0.000 s ( 6.052 %)
Internal coordinates            :      0.000 s ( 0.552 %)
B/P matrices and projection     :      0.001 s (34.654 %)
Hessian update/contruction      :      0.001 s (13.160 %)
Making the step                 :      0.001 s (25.937 %)
Converting the step to Cartesian:      0.000 s ( 3.218 %)
Storing new data                :      0.000 s ( 0.480 %)
Checking convergence            :      0.000 s ( 0.168 %)
Final printing                  :      0.001 s (15.730 %)
Total time                      :      0.004 s

Time for energy+gradient        :      0.027 s
Time for complete geometry iter :      0.032 s

         *************************************************************
         *                GEOMETRY OPTIMIZATION CYCLE   2            *
         *************************************************************
---------------------------------
CARTESIAN COORDINATES (ANGSTROEM)
---------------------------------
  C     2.276090   -1.496473   -0.008262
  C     2.327476    1.283189   -0.003278
  C    -0.124726    2.779306    0.010873
  C     4.755976   -1.659484    0.032424
  C     4.821821    1.334514   -0.031013
  H    -4.547106   -1.143783   -0.003835
  C     3.485341   -0.837004    0.002528
  C     3.518365    0.565015   -0.011438
  O    -2.612197   -2.721309   -0.013080
  O    -4.651118    1.314015    0.008971
  C    -2.522986   -1.496088   -0.007646
  C    -3.593336    0.677014    0.004061
  C     1.060332   -0.787223   -0.009374
  C     1.097653    0.629339   -0.001486
  N    -0.098403    1.333819    0.003699
  C    -1.242313   -0.793573   -0.006288
  C    -1.279585    0.653331    0.001330
  N    -3.642662   -0.698485   -0.003554
  N    -0.098844   -1.463019   -0.010494
  N    -2.420419    1.322829    0.006067
  H    -1.165932    3.091940    0.015599
  H     0.377059    3.156353    0.904690
  H     0.370958    3.164920   -0.882654
  H     2.248121   -2.574271   -0.005990
  H     2.364285    2.360925   -0.006227
  H     5.101359   -1.844947   -0.985032
  H     5.536131   -1.147579    0.586879
  H     4.557581   -2.615932    0.510627
  H     5.170211    1.504445    0.988994
  H     5.582510    0.790993   -0.581534
  H     4.668158    2.300125   -0.509356

----------------------------
CARTESIAN COORDINATES (A.U.)
----------------------------
  NO LB    ZA    FRAG    MASS        X           Y           Z
   0 C   6.0000    0    12.011    4.301186   -2.827923   -0.015614
   1 C   6.0000    0    12.011    4.398293    2.424875   -0.006195
   2 C   6.0000    0    12.011   -0.235697    5.252126    0.020547
   3 C   6.0000    0    12.011    8.987493   -3.135970    0.061273
   4 C   6.0000    0    12.011    9.111921    2.521866   -0.058605
   5 H   1.0000    0     1.008   -8.592785   -2.161437   -0.007247
   6 C   6.0000    0    12.011    6.586339   -1.581708    0.004777
   7 C   6.0000    0    12.011    6.648747    1.067724   -0.021615
   8 O   8.0000    0    15.999   -4.936338   -5.142528   -0.024718
   9 O   8.0000    0    15.999   -8.789339    2.483128    0.016952
  10 C   6.0000    0    12.011   -4.767752   -2.827196   -0.014449
  11 C   6.0000    0    12.011   -6.790421    1.279370    0.007673
  12 C   6.0000    0    12.011    2.003738   -1.487636   -0.017714
  13 C   6.0000    0    12.011    2.074263    1.189278   -0.002807
  14 N   7.0000    0    14.007   -0.185955    2.520553    0.006989
  15 C   6.0000    0    12.011   -2.347631   -1.499636   -0.011882
  16 C   6.0000    0    12.011   -2.418066    1.234616    0.002513
  17 N   7.0000    0    14.007   -6.883634   -1.319945   -0.006715
  18 N   7.0000    0    14.007   -0.186788   -2.764705   -0.019830
  19 N   7.0000    0    14.007   -4.573929    2.499785    0.011464
  20 H   1.0000    0     1.008   -2.203292    5.842919    0.029477
  21 H   1.0000    0     1.008    0.712538    5.964642    1.709616
  22 H   1.0000    0     1.008    0.701009    5.980832   -1.667974
  23 H   1.0000    0     1.008    4.248332   -4.864667   -0.011319
  24 H   1.0000    0     1.008    4.467852    4.461503   -0.011768
  25 H   1.0000    0     1.008    9.640171   -3.486445   -1.861440
  26 H   1.0000    0     1.008   10.461772   -2.168610    1.109041
  27 H   1.0000    0     1.008    8.612580   -4.943396    0.964944
  28 H   1.0000    0     1.008    9.770283    2.842988    1.868927
  29 H   1.0000    0     1.008   10.549414    1.494760   -1.098941
  30 H   1.0000    0     1.008    8.821539    4.346606   -0.962544

      -----------------------------------------------------------      
     |                   =====================                   |     
     |                           x T B                           |     
     |                   =====================                   |     
     |                         S. Grimme                         |     
     |          Mulliken Center for Theoretical Chemistry        |     
     |                    University of Bonn                     |     
      -----------------------------------------------------------      

   * xtb version 6.7.1 (edcfbbe) compiled by 'albert@albert-system' on 2024-07-22

   xtb is free software: you can redistribute it and/or modify it under
   the terms of the GNU Lesser General Public License as published by
   the Free Software Foundation, either version 3 of the License, or
   (at your option) any later version.
   
   xtb is distributed in the hope that it will be useful,
   but WITHOUT ANY WARRANTY; without even the implied warranty of
   MERCHANTABILITY or FITNESS FOR A PARTICULAR PURPOSE.  See the
   GNU Lesser General Public License for more details.
   
   Cite this work as:
   * C. Bannwarth, E. Caldeweyher, S. Ehlert, A. Hansen, P. Pracht,
     J. Seibert, S. Spicher, S. Grimme, WIREs Comput. Mol. Sci., 2020, 11,
     e01493. DOI: 10.1002/wcms.1493
   
   for GFN2-xTB:
   * C. Bannwarth, S. Ehlert and S. Grimme., J. Chem. Theory Comput., 2019,
     15, 1652-1671. DOI: 10.1021/acs.jctc.8b01176
   for GFN1-xTB:
   * S. Grimme, C. Bannwarth, P. Shushkov, J. Chem. Theory Comput., 2017,
     13, 1989-2009. DOI: 10.1021/acs.jctc.7b00118
   for GFN0-xTB:
   * P. Pracht, E. Caldeweyher, S. Ehlert, S. Grimme, ChemRxiv, 2019, preprint.
     DOI: 10.26434/chemrxiv.8326202.v1
   for GFN-FF:
   * S. Spicher and S. Grimme, Angew. Chem. Int. Ed., 2020, 59, 15665-15673.
     DOI: 10.1002/anie.202004239
   
   for ALPB and GBSA implicit solvation:
   * S. Ehlert, M. Stahn, S. Spicher, S. Grimme, J. Chem. Theory Comput.,
     2021, 17, 4250-4261. DOI: 10.1021/acs.jctc.1c00471
   
   for ddCOSMO and CPCM-X implicit solvation:
   * M. Stahn, S. Ehlert, S. Grimme, J. Phys. Chem. A,
     2023, XX, XXXX-XXXX. DOI: 10.1021/acs.jpca.3c04382
   
   for DFT-D4:
   * E. Caldeweyher, C. Bannwarth and S. Grimme, J. Chem. Phys., 2017,
     147, 034112. DOI: 10.1063/1.4993215
   * E. Caldeweyher, S. Ehlert, A. Hansen, H. Neugebauer, S. Spicher,
     C. Bannwarth and S. Grimme, J. Chem. Phys., 2019, 150, 154122.
     DOI: 10.1063/1.5090222
   * E. Caldeweyher, J.-M. Mewes, S. Ehlert and S. Grimme, Phys. Chem. Chem. Phys.
     2020, 22, 8499-8512. DOI: 10.1039/D0CP00502A
   
   for sTDA-xTB:
   * S. Grimme and C. Bannwarth, J. Chem. Phys., 2016, 145, 054103.
     DOI: 10.1063/1.4959605
   
   in the mass-spec context:
   * V. Asgeirsson, C. Bauer and S. Grimme, Chem. Sci., 2017, 8, 4879.
     DOI: 10.1039/c7sc00601b
   * J. Koopman and S. Grimme, ACS Omega 2019, 4, 12, 15120-15133.
     DOI: 10.1021/acsomega.9b02011
   
   for metadynamics refer to:
   * S. Grimme, J. Chem. Theory Comput., 2019, 155, 2847-2862
     DOI: 10.1021/acs.jctc.9b00143
   
   for SPH calculations refer to:
   * S. Spicher and S. Grimme, J. Chem. Theory Comput., 2021, 17, 1701-1714
     DOI: 10.1021/acs.jctc.0c01306
   
   for ONIOM refer to:
   * C. Plett, A. Katbashev, S. Ehlert, S. Grimme, M. Bursch,
     Phys. Chem. Chem. Phys., 2023, 25, 17860-17868. DOI: 10.1039/D3CP02178E
   
   for DIPRO refer to:
   * J. Kohn, N. Gildemeister, S. Grimme, D. Fazzi, A. Hansen,
     J. Chem. Phys., 2023, just accepted.
   
   for PTB refer to:
   * S. Grimme, M. Mueller, A. Hansen, J. Chem. Phys., 2023, 158, 124111.
     DOI: 10.1063/5.0137838
   
   with help from (in alphabetical order)
   P. Atkinson, C. Bannwarth, F. Bohle, G. Brandenburg, E. Caldeweyher
   M. Checinski, S. Dohm, S. Ehlert, S. Ehrlich, I. Gerasimov, C. Hölzer
   A. Katbashev, J. Kohn, J. Koopman, C. Lavigne, S. Lehtola, F. März, M. Müller,
   F. Musil, H. Neugebauer, J. Pisarek, C. Plett, P. Pracht, F. Pultar,
   J. Seibert, P. Shushkov, S. Spicher, M. Stahn, M. Steiner, T. Strunk,
   J. Stückrath, T. Rose, and J. Unsleber
   
 * started run on 2025/05/13 at 14:56:55.481     
   ID    Z sym.   atoms
    1    6 C      1-5, 7, 8, 11-14, 16, 17
    2    1 H      6, 21-31
    3    8 O      9, 10
    4    7 N      15, 18-20

           -------------------------------------------------
          |                Calculation Setup                |
           -------------------------------------------------

          program call               : /home/mchrnwsk/orca_6_0_1_linux_x86-64_shared_openmpi416/otool_xtb /home/mchrnwsk/qmmm/runs/expanding_reaction_scope/quinoline/optimise/lmf/0_LMF_opt_unrest/LMF_opt_unrest_XTB.xyz --grad -c -1 -u 2 -P 8 --namespace /home/mchrnwsk/qmmm/runs/expanding_reaction_scope/quinoline/optimise/lmf/0_LMF_opt_unrest/LMF_opt_unrest --input /home/mchrnwsk/qmmm/runs/expanding_reaction_scope/quinoline/optimise/lmf/0_LMF_opt_unrest/LMF_opt_unrest_XTB.input.tmp --acc 0.200000
          calculation namespace      : /home/mchrnwsk/qmmm/runs/expanding_reaction_scope/quinoline/optimise/lmf/0_LMF_opt_unrest/LMF_opt_unrest
          coordinate file            : /home/mchrnwsk/qmmm/runs/expanding_reaction_scope/quinoline/optimise/lmf/0_LMF_opt_unrest/LMF_opt_unrest_XTB.xyz
          omp threads                :                     8


           -------------------------------------------------
          |                 G F N 2 - x T B                 |
           -------------------------------------------------

        Reference                      10.1021/acs.jctc.8b01176
      * Hamiltonian:
        H0-scaling (s, p, d)           1.850000    2.230000    2.230000
        zeta-weighting                 0.500000
      * Dispersion:
        s8                             2.700000
        a1                             0.520000
        a2                             5.000000
        s9                             5.000000
      * Repulsion:
        kExp                           1.500000    1.000000
        rExp                           1.000000
      * Coulomb:
        alpha                          2.000000
        third order                    shell-resolved
        anisotropic                    true
        a3                             3.000000
        a5                             4.000000
        cn-shift                       1.200000
        cn-exp                         4.000000
        max-rad                        5.000000

q/qsh data taken from xtbrestart
CAMM data taken from xtbrestart

          ...................................................
          :                      SETUP                      :
          :.................................................:
          :  # basis functions                  88          :
          :  # atomic orbitals                  88          :
          :  # shells                           50          :
          :  # electrons                        97          :
          :  max. iterations                   250          :
          :  Hamiltonian                  GFN2-xTB          :
          :  restarted?                       true          :
          :  GBSA solvation                  false          :
          :  PC potential                    false          :
          :  electronic temp.          300.0000000     K    :
          :  accuracy                    0.2000000          :
          :  -> integral cutoff          0.3198970E+02      :
          :  -> integral neglect         0.2000000E-08      :
          :  -> SCF convergence          0.2000000E-06 Eh   :
          :  -> wf. convergence          0.2000000E-04 e    :
          :  Broyden damping             0.4000000          :
          :  net charge                         -1          :
          :  unpaired electrons                  2          :
          ...................................................

 iter      E             dE          RMSdq      gap      omega  full diag
   1    -54.8337237 -0.548337E+02  0.280E-01    1.48       0.0  T
   2    -54.8341536 -0.429858E-03  0.185E-01    1.48       1.0  T
   3    -54.8341700 -0.164283E-04  0.866E-02    1.48       1.0  T
   4    -54.8342326 -0.625270E-04  0.220E-02    1.48       1.0  T
   5    -54.8342427 -0.101641E-04  0.826E-03    1.48       2.2  T
   6    -54.8342434 -0.636596E-06  0.456E-03    1.48       3.9  T
   7    -54.8342434 -0.928836E-07  0.131E-03    1.48      13.7  T
   8    -54.8342435 -0.191642E-07  0.689E-04    1.48      26.1  T
   9    -54.8342435 -0.196392E-08  0.295E-04    1.48      60.9  T
  10    -54.8342435 -0.165448E-08  0.790E-05    1.48     227.3  T
  11    -54.8342435 -0.595151E-10  0.402E-05    1.48     446.8  T

   *** convergence criteria satisfied after 11 iterations ***

         #    Occupation            Energy/Eh            Energy/eV
      -------------------------------------------------------------
         1        2.0000           -0.5534540             -15.0603
       ...           ...                  ...                  ...
        43        2.0000           -0.2678874              -7.2896
        44        2.0000           -0.2618478              -7.1252
        45        2.0000           -0.2587048              -7.0397
        46        2.0000           -0.2435111              -6.6263
        47        2.0000           -0.2418644              -6.5815
        48        2.0000           -0.2124817              -5.7819
        49        1.0000           -0.1646663              -4.4808 (HOMO)
        50                         -0.1102971              -3.0013 (LUMO)
        51                         -0.0883581              -2.4043
        52                         -0.0699122              -1.9024
        53                         -0.0413606              -1.1255
        54                          0.0216079               0.5880
       ...                                ...                  ...
        88                          0.8242099              22.4279
      -------------------------------------------------------------
                  HL-Gap            0.0543692 Eh            1.4795 eV
             Fermi-level           -0.1630278 Eh           -4.4362 eV
 
 transition dipole moment (au) for excitation:          48          49
     X       Y       Z   
   0.0008   0.0031   0.0934  total (au/Debye):    0.093   0.237
 dE (eV)             :    1.301
 oscillator strength :  0.39338E-03

 SCC (total)                   0 d,  0 h,  0 min,  0.016 sec
 SCC setup                      ...        0 min,  0.000 sec (  0.733%)
 Dispersion                     ...        0 min,  0.000 sec (  0.883%)
 classical contributions        ...        0 min,  0.000 sec (  0.086%)
 integral evaluation            ...        0 min,  0.001 sec (  4.711%)
 iterations                     ...        0 min,  0.010 sec ( 65.173%)
 molecular gradient             ...        0 min,  0.002 sec ( 11.179%)
 printout                       ...        0 min,  0.003 sec ( 17.168%)

         :::::::::::::::::::::::::::::::::::::::::::::::::::::
         ::                     SUMMARY                     ::
         :::::::::::::::::::::::::::::::::::::::::::::::::::::
         :: total energy             -54.097990329561 Eh    ::
         :: gradient norm              0.070159967339 Eh/a0 ::
         :: HOMO-LUMO gap              1.479460724054 eV    ::
         ::.................................................::
         :: SCC energy               -54.834315805156 Eh    ::
         :: -> isotropic ES            0.189317718913 Eh    ::
         :: -> anisotropic ES          0.012106427971 Eh    ::
         :: -> anisotropic XC          0.019990537952 Eh    ::
         :: -> dispersion             -0.035655359120 Eh    ::
         :: repulsion energy           0.736325475594 Eh    ::
         :: add. restraining           0.000000000000 Eh    ::
         :: total charge              -1.000000000000 e     ::
         :::::::::::::::::::::::::::::::::::::::::::::::::::::


Property printout bound to 'properties.out'

           -------------------------------------------------
          | TOTAL ENERGY              -54.097990329561 Eh   |
          | GRADIENT NORM               0.070159967339 Eh/α |
          | HOMO-LUMO GAP               1.479460724054 eV   |
           -------------------------------------------------

------------------------------------------------------------------------
 * finished run on 2025/05/13 at 14:56:55.503     
------------------------------------------------------------------------
 total:
 * wall-time:     0 d,  0 h,  0 min,  0.022 sec
 *  cpu-time:     0 d,  0 h,  0 min,  0.165 sec
 * ratio c/w:     7.576 speedup
 SCF:
 * wall-time:     0 d,  0 h,  0 min,  0.016 sec
 *  cpu-time:     0 d,  0 h,  0 min,  0.128 sec
 * ratio c/w:     7.845 speedup


-------------------------   --------------------
FINAL SINGLE POINT ENERGY       -54.097990329560
-------------------------   --------------------


-------------
DIPOLE MOMENT
-------------
                                X             Y             Z
Total Dipole Moment    :      4.11000       1.31600       0.00800
                        -----------------------------------------
Magnitude (a.u.)       :      4.31556
Magnitude (Debye)      :     10.96927

------------------------------------------------------------------------------
                         ORCA GEOMETRY RELAXATION STEP
------------------------------------------------------------------------------

Reading the OPT-File                    .... done
Getting information on internals        .... done
Copying old internal coords+grads       .... done
Making the new internal coordinates     .... (2022 redundants) done
Validating the new internal coordinates .... (2022 redundants) done
Calculating the B-matrix                .... done
Calculating the G,G- and P matrices     .... done
Transforming gradient to internals      .... done
Projecting the internal gradient        .... done
Number of atoms                         ....  31
Number of internal coordinates          .... 160
Current Energy                          ....   -54.097990330 Eh
Current gradient norm                   ....     0.070159967 Eh/bohr
Maximum allowed component of the step   ....  0.300
Current trust radius                    ....  0.300
Updating the Hessian (BFGS)             .... done
Forming the augmented Hessian           .... done
Diagonalizing the augmented Hessian     .... done
Last element of RFO vector              ....  0.984852554
Lowest eigenvalues of augmented Hessian:
 -0.006977597  0.012250762  0.012631154  0.015381961  0.018961033
Length of the computed step             ....  0.176060778
The final length of the internal step   ....  0.176060778
Converting the step to Cartesian space:
 Initial RMS(Int)=    0.0139188266
Transforming coordinates:
 Iter   0:  RMS(Cart)=    0.0296958973 RMS(Int)=    1.1106744514
done
Storing new coordinates                 .... done
The predicted energy change is          ....    -0.003596942
Previously predicted energy change      ....    -0.014255752
Actually observed energy change         ....    -0.016933500
Ratio of predicted to observed change   ....     1.187836343
New trust radius                        ....     0.450000000

                                .--------------------.
          ----------------------|Geometry convergence|-------------------------
          Item                value                   Tolerance       Converged
          ---------------------------------------------------------------------
          Energy change      -0.0169335003            0.0000050000      NO
          RMS gradient        0.0035692021            0.0001000000      NO
          MAX gradient        0.0139190634            0.0003000000      NO
          RMS step            0.0139188266            0.0020000000      NO
          MAX step            0.0479065185            0.0040000000      NO
          ........................................................
          Max(Bonds)      0.0254      Max(Angles)    2.61
          Max(Dihed)        1.86      Max(Improp)    0.00
          ---------------------------------------------------------------------

[...]
  O    -4.676044    1.328325   -0.024070
  C    -2.508648   -1.506268    0.050846
  C    -3.603635    0.737654   -0.009231
  C     1.048604   -0.795479    0.027805
  C     1.093037    0.628934   -0.011422
  N    -0.109088    1.314457   -0.028422
  C    -1.244639   -0.793895    0.030201
  C    -1.303346    0.617862   -0.008332
  N    -3.605613   -0.663442    0.028792
  N    -0.094784   -1.491871    0.048331
  N    -2.408787    1.345961   -0.027083
  H    -1.195820    3.033878   -0.071572
  H     0.351011    3.175425    0.812733
  H     0.346347    3.128119   -0.969819
  H     2.224562   -2.565545    0.075135
  H     2.364129    2.351840   -0.061034
  H     5.369359   -1.412207   -0.839323
  H     5.367890   -1.367382    0.921675
  H     4.555510   -2.688615    0.073620
  H     5.417603    1.078286    0.852690
  H     5.417982    1.026783   -0.907239
  H     4.653812    2.379796   -0.066293

----------------------------
CARTESIAN COORDINATES (A.U.)
----------------------------
  NO LB    ZA    FRAG    MASS        X           Y           Z
   0 C   6.0000    0    12.011    4.295367   -2.811657    0.085746
   1 C   6.0000    0    12.011    4.379955    2.405207   -0.058573
   2 C   6.0000    0    12.011   -0.271110    5.203542   -0.125994
   3 C   6.0000    0    12.011    9.011193   -3.066405    0.088024
   4 C   6.0000    0    12.011    9.116507    2.466923   -0.065826
   5 H   1.0000    0     1.008   -8.532962   -2.094644    0.079063
   6 C   6.0000    0    12.011    6.594502   -1.575944    0.048632
   7 C   6.0000    0    12.011    6.651351    1.062338   -0.024580
   8 O   8.0000    0    15.999   -5.052524   -5.141508    0.159100
   9 O   8.0000    0    15.999   -8.836443    2.510171   -0.045485
  10 C   6.0000    0    12.011   -4.740657   -2.846434    0.096084
  11 C   6.0000    0    12.011   -6.809883    1.393965   -0.017445
  12 C   6.0000    0    12.011    1.981574   -1.503238    0.052543
  13 C   6.0000    0    12.011    2.065541    1.188512   -0.021584
  14 N   7.0000    0    14.007   -0.206146    2.483964   -0.053710
  15 C   6.0000    0    12.011   -2.352027   -1.500245    0.057072
  16 C   6.0000    0    12.011   -2.462966    1.167590   -0.015745
  17 N   7.0000    0    14.007   -6.813622   -1.253724    0.054409
  18 N   7.0000    0    14.007   -0.179116   -2.819228    0.091332
  19 N   7.0000    0    14.007   -4.551948    2.543498   -0.051180
  20 H   1.0000    0     1.008   -2.259772    5.733199   -0.135251
  21 H   1.0000    0     1.008    0.663315    6.000683    1.535843
  22 H   1.0000    0     1.008    0.654500    5.911287   -1.832692
  23 H   1.0000    0     1.008    4.203813   -4.848177    0.141984
  24 H   1.0000    0     1.008    4.467556    4.444334   -0.115337
  25 H   1.0000    0     1.008   10.146617   -2.668684   -1.586090
  26 H   1.0000    0     1.008   10.143843   -2.583977    1.741713
  27 H   1.0000    0     1.008    8.608667   -5.080746    0.139123
  28 H   1.0000    0     1.008   10.237785    2.037666    1.611351
  29 H   1.0000    0     1.008   10.238503    1.940338   -1.714433
  30 H   1.0000    0     1.008    8.794431    4.497162   -0.125276

      -----------------------------------------------------------      
     |                   =====================                   |     
     |                           x T B                           |     
     |                   =====================                   |     
     |                         S. Grimme                         |     
     |          Mulliken Center for Theoretical Chemistry        |     
     |                    University of Bonn                     |     
      -----------------------------------------------------------      

   * xtb version 6.7.1 (edcfbbe) compiled by 'albert@albert-system' on 2024-07-22

   xtb is free software: you can redistribute it and/or modify it under
   the terms of the GNU Lesser General Public License as published by
   the Free Software Foundation, either version 3 of the License, or
   (at your option) any later version.
   
   xtb is distributed in the hope that it will be useful,
   but WITHOUT ANY WARRANTY; without even the implied warranty of
   MERCHANTABILITY or FITNESS FOR A PARTICULAR PURPOSE.  See the
   GNU Lesser General Public License for more details.
   
   Cite this work as:
   * C. Bannwarth, E. Caldeweyher, S. Ehlert, A. Hansen, P. Pracht,
     J. Seibert, S. Spicher, S. Grimme, WIREs Comput. Mol. Sci., 2020, 11,
     e01493. DOI: 10.1002/wcms.1493
   
   for GFN2-xTB:
   * C. Bannwarth, S. Ehlert and S. Grimme., J. Chem. Theory Comput., 2019,
     15, 1652-1671. DOI: 10.1021/acs.jctc.8b01176
   for GFN1-xTB:
   * S. Grimme, C. Bannwarth, P. Shushkov, J. Chem. Theory Comput., 2017,
     13, 1989-2009. DOI: 10.1021/acs.jctc.7b00118
   for GFN0-xTB:
   * P. Pracht, E. Caldeweyher, S. Ehlert, S. Grimme, ChemRxiv, 2019, preprint.
     DOI: 10.26434/chemrxiv.8326202.v1
   for GFN-FF:
   * S. Spicher and S. Grimme, Angew. Chem. Int. Ed., 2020, 59, 15665-15673.
     DOI: 10.1002/anie.202004239
   
   for ALPB and GBSA implicit solvation:
   * S. Ehlert, M. Stahn, S. Spicher, S. Grimme, J. Chem. Theory Comput.,
     2021, 17, 4250-4261. DOI: 10.1021/acs.jctc.1c00471
   
   for ddCOSMO and CPCM-X implicit solvation:
   * M. Stahn, S. Ehlert, S. Grimme, J. Phys. Chem. A,
     2023, XX, XXXX-XXXX. DOI: 10.1021/acs.jpca.3c04382
   
   for DFT-D4:
   * E. Caldeweyher, C. Bannwarth and S. Grimme, J. Chem. Phys., 2017,
     147, 034112. DOI: 10.1063/1.4993215
   * E. Caldeweyher, S. Ehlert, A. Hansen, H. Neugebauer, S. Spicher,
     C. Bannwarth and S. Grimme, J. Chem. Phys., 2019, 150, 154122.
     DOI: 10.1063/1.5090222
   * E. Caldeweyher, J.-M. Mewes, S. Ehlert and S. Grimme, Phys. Chem. Chem. Phys.
     2020, 22, 8499-8512. DOI: 10.1039/D0CP00502A
   
   for sTDA-xTB:
   * S. Grimme and C. Bannwarth, J. Chem. Phys., 2016, 145, 054103.
     DOI: 10.1063/1.4959605
   
   in the mass-spec context:
   * V. Asgeirsson, C. Bauer and S. Grimme, Chem. Sci., 2017, 8, 4879.
     DOI: 10.1039/c7sc00601b
   * J. Koopman and S. Grimme, ACS Omega 2019, 4, 12, 15120-15133.
     DOI: 10.1021/acsomega.9b02011
   
   for metadynamics refer to:
   * S. Grimme, J. Chem. Theory Comput., 2019, 155, 2847-2862
     DOI: 10.1021/acs.jctc.9b00143
   
   for SPH calculations refer to:
   * S. Spicher and S. Grimme, J. Chem. Theory Comput., 2021, 17, 1701-1714
     DOI: 10.1021/acs.jctc.0c01306
   
   for ONIOM refer to:
   * C. Plett, A. Katbashev, S. Ehlert, S. Grimme, M. Bursch,
     Phys. Chem. Chem. Phys., 2023, 25, 17860-17868. DOI: 10.1039/D3CP02178E
   
   for DIPRO refer to:
   * J. Kohn, N. Gildemeister, S. Grimme, D. Fazzi, A. Hansen,
     J. Chem. Phys., 2023, just accepted.
   
   for PTB refer to:
   * S. Grimme, M. Mueller, A. Hansen, J. Chem. Phys., 2023, 158, 124111.
     DOI: 10.1063/5.0137838
   
   with help from (in alphabetical order)
   P. Atkinson, C. Bannwarth, F. Bohle, G. Brandenburg, E. Caldeweyher
   M. Checinski, S. Dohm, S. Ehlert, S. Ehrlich, I. Gerasimov, C. Hölzer
   A. Katbashev, J. Kohn, J. Koopman, C. Lavigne, S. Lehtola, F. März, M. Müller,
   F. Musil, H. Neugebauer, J. Pisarek, C. Plett, P. Pracht, F. Pultar,
   J. Seibert, P. Shushkov, S. Spicher, M. Stahn, M. Steiner, T. Strunk,
   J. Stückrath, T. Rose, and J. Unsleber
   
 * started run on 2025/05/13 at 14:56:55.803     
   ID    Z sym.   atoms
    1    6 C      1-5, 7, 8, 11-14, 16, 17
    2    1 H      6, 21-31
    3    8 O      9, 10
    4    7 N      15, 18-20

           -------------------------------------------------
          |                Calculation Setup                |
           -------------------------------------------------

          program call               : /home/mchrnwsk/orca_6_0_1_linux_x86-64_shared_openmpi416/otool_xtb /home/mchrnwsk/qmmm/runs/expanding_reaction_scope/quinoline/optimise/lmf/0_LMF_opt_unrest/LMF_opt_unrest_XTB.xyz --grad -c -1 -u 2 -P 8 --namespace /home/mchrnwsk/qmmm/runs/expanding_reaction_scope/quinoline/optimise/lmf/0_LMF_opt_unrest/LMF_opt_unrest --input /home/mchrnwsk/qmmm/runs/expanding_reaction_scope/quinoline/optimise/lmf/0_LMF_opt_unrest/LMF_opt_unrest_XTB.input.tmp --acc 0.200000
          calculation namespace      : /home/mchrnwsk/qmmm/runs/expanding_reaction_scope/quinoline/optimise/lmf/0_LMF_opt_unrest/LMF_opt_unrest
          coordinate file            : /home/mchrnwsk/qmmm/runs/expanding_reaction_scope/quinoline/optimise/lmf/0_LMF_opt_unrest/LMF_opt_unrest_XTB.xyz
          omp threads                :                     8


           -------------------------------------------------
          |                 G F N 2 - x T B                 |
           -------------------------------------------------

        Reference                      10.1021/acs.jctc.8b01176
      * Hamiltonian:
        H0-scaling (s, p, d)           1.850000    2.230000    2.230000
        zeta-weighting                 0.500000
      * Dispersion:
        s8                             2.700000
        a1                             0.520000
        a2                             5.000000
        s9                             5.000000
      * Repulsion:
        kExp                           1.500000    1.000000
        rExp                           1.000000
      * Coulomb:
        alpha                          2.000000
        third order                    shell-resolved
        anisotropic                    true
        a3                             3.000000
        a5                             4.000000
        cn-shift                       1.200000
        cn-exp                         4.000000
        max-rad                        5.000000

q/qsh data taken from xtbrestart
CAMM data taken from xtbrestart

          ...................................................
          :                      SETUP                      :
          :.................................................:
          :  # basis functions                  88          :
          :  # atomic orbitals                  88          :
          :  # shells                           50          :
          :  # electrons                        97          :
          :  max. iterations                   250          :
          :  Hamiltonian                  GFN2-xTB          :
          :  restarted?                       true          :
          :  GBSA solvation                  false          :
          :  PC potential                    false          :
          :  electronic temp.          300.0000000     K    :
          :  accuracy                    0.2000000          :
          :  -> integral cutoff          0.3198970E+02      :
          :  -> integral neglect         0.2000000E-08      :
          :  -> SCF convergence          0.2000000E-06 Eh   :
          :  -> wf. convergence          0.2000000E-04 e    :
          :  Broyden damping             0.4000000          :
          :  net charge                         -1          :
          :  unpaired electrons                  2          :
          ...................................................

 iter      E             dE          RMSdq      gap      omega  full diag
   1    -54.8394200 -0.548394E+02  0.153E-03    1.62       0.0  T
   2    -54.8394200 -0.809644E-08  0.885E-04    1.62      20.3  T
   3    -54.8394200  0.259902E-09  0.423E-04    1.62      42.5  T
   4    -54.8394200 -0.124702E-08  0.969E-05    1.62     185.3  T
   5    -54.8394200 -0.238181E-09  0.289E-05    1.62     621.0  T

   *** convergence criteria satisfied after 5 iterations ***

         #    Occupation            Energy/Eh            Energy/eV
      -------------------------------------------------------------
         1        2.0000           -0.5527344             -15.0407
       ...           ...                  ...                  ...
        43        2.0000           -0.2690450              -7.3211
        44        2.0000           -0.2677003              -7.2845
        45        2.0000           -0.2610555              -7.1037
        46        2.0000           -0.2440633              -6.6413
        47        2.0000           -0.2434713              -6.6252
        48        2.0000           -0.2186080              -5.9486
        49        1.0000           -0.1694101              -4.6099 (HOMO)
        50                         -0.1099053              -2.9907 (LUMO)
        51                         -0.0877465              -2.3877
        52                         -0.0713923              -1.9427
        53                         -0.0433328              -1.1791
        54                          0.0218517               0.5946
       ...                                ...                  ...
        88                          0.8275688              22.5193
      -------------------------------------------------------------
                  HL-Gap            0.0595048 Eh            1.6192 eV
             Fermi-level           -0.1668334 Eh           -4.5398 eV
 
 transition dipole moment (au) for excitation:          48          49
     X       Y       Z   
  -0.0004   0.0029   0.0987  total (au/Debye):    0.099   0.251
 dE (eV)             :    1.339
 oscillator strength :  0.45191E-03

 SCC (total)                   0 d,  0 h,  0 min,  0.014 sec
 SCC setup                      ...        0 min,  0.000 sec (  0.874%)
 Dispersion                     ...        0 min,  0.000 sec (  1.003%)
 classical contributions        ...        0 min,  0.000 sec (  0.091%)
 integral evaluation            ...        0 min,  0.001 sec (  5.391%)
 iterations                     ...        0 min,  0.007 sec ( 48.785%)
 molecular gradient             ...        0 min,  0.002 sec ( 15.375%)
 printout                       ...        0 min,  0.004 sec ( 28.396%)

         :::::::::::::::::::::::::::::::::::::::::::::::::::::
         ::                     SUMMARY                     ::
         :::::::::::::::::::::::::::::::::::::::::::::::::::::
         :: total energy             -54.104584847489 Eh    ::
         :: gradient norm              0.000185723147 Eh/a0 ::
         :: HOMO-LUMO gap              1.619209096307 eV    ::
         ::.................................................::
         :: SCC energy               -54.839496454266 Eh    ::
         :: -> isotropic ES            0.186036553083 Eh    ::
         :: -> anisotropic ES          0.012412140461 Eh    ::
         :: -> anisotropic XC          0.019770019756 Eh    ::
         :: -> dispersion             -0.035735740864 Eh    ::
         :: repulsion energy           0.734911606777 Eh    ::
         :: add. restraining           0.000000000000 Eh    ::
         :: total charge              -1.000000000000 e     ::
         :::::::::::::::::::::::::::::::::::::::::::::::::::::


Property printout bound to 'properties.out'

           -------------------------------------------------
          | TOTAL ENERGY              -54.104584847489 Eh   |
          | GRADIENT NORM               0.000185723147 Eh/α |
          | HOMO-LUMO GAP               1.619209096307 eV   |
           -------------------------------------------------

------------------------------------------------------------------------
 * finished run on 2025/05/13 at 14:56:55.824     
------------------------------------------------------------------------
 total:
 * wall-time:     0 d,  0 h,  0 min,  0.021 sec
 *  cpu-time:     0 d,  0 h,  0 min,  0.155 sec
 * ratio c/w:     7.443 speedup
 SCF:
 * wall-time:     0 d,  0 h,  0 min,  0.014 sec
 *  cpu-time:     0 d,  0 h,  0 min,  0.112 sec
 * ratio c/w:     7.859 speedup


-------------------------   --------------------
FINAL SINGLE POINT ENERGY       -54.104584847490
-------------------------   --------------------


-------------
DIPOLE MOMENT
-------------
                                X             Y             Z
Total Dipole Moment    :      4.18000       1.35200      -0.05400
                        -----------------------------------------
Magnitude (a.u.)       :      4.39354
Magnitude (Debye)      :     11.16750

                                *** OPTIMIZATION RUN DONE ***


--------------------------------
SUGGESTED CITATIONS FOR THIS RUN
--------------------------------

Below you find a list of papers that are relevant to this ORCA run
We neither can nor want to force you to cite these papers, but we appreciate if you do
You receive ORCA, which is the product of decades of hard work by many enthusiastic individuals, for free
The only thing we kindly ask in return is that you cite our papers,
We deeply appreciate it, if you show your appreciation for ORCA by not just citing the generic ORCA reference.

Please note that relegating all ORCA citations to the supporting information does *not* help us.
SI sections are not indexed - citations you put there will not count into any citation statistics
But we need these citations in order to attract the funding resources that allow us to do what we are doing

Therefore, if you are a happy ORCA user, please consider citing a few of the papers listed below in the main body of your paper

In addition to the list printed below, the program has created the file /home/mchrnwsk/qmmm/runs/expanding_reaction_scope/quinoline/optimise/lmf/0_LMF_opt_unrest/LMF_opt_unrest.bibtex that contains the list in bibtex format
You can import this file easily into all common literature databanks and citation aid programs


List of essential papers. We consider these as the minimum necessary citations

  1. Bannwarth,C.; Ehlert,S.; Grimme,S.
     GFN2-xTB—An Accurate and Broadly Parametrized Self-Consistent Tight-Binding Quantum Chemical Method with Multipole Electrostatics and Density-Dependent Dispersion Contributions
     J. Chem. Theory Comput., 2019 15(3)1652-1671
     doi.org/10.1021/acs.jctc.8b01176
  2. Neese,F.
     Software update: the ORCA program system, version 5.0
     WIRES Comput. Molec. Sci., 2022 12(1)e1606
     doi.org/10.1002/wcms.1606

List of papers to cite with high priority. The work reported in these papers was absolutely
necessary for this run to complete.
Our perspective: the developers of density functionals and basis sets usually get cited in chemistry papers
Good! But without the algorithms to do something with them, the functionals or basis sets would not do anything.
Hence, in our opinion, the algorithm design and method developments papers are equally worthy of getting cited

  1. Bannwarth,C.; Caldeweyher,E.; Ehlert,S.; Hansen,A.; Pracht,P.; Seibert,J.; Spicher,S.; Grimme,S.
     Extended tight-binding quantum chemistry methods
     WIRES Comput. Molec. Sci., 2020 11(2)e1493
     doi.org/10.1002/wcms.1493

List of suggested additional citations. These are papers that are important in the 'surrounding' of 
of this run, or papers that preceded the highly important papers. If you like your results we are grateful for a citation.

  1. Neese,F.
     The ORCA program system
     WIRES Comput. Molec. Sci., 2012 2(1)73-78
     doi.org/10.1002/wcms.81
  2. Neese,F.
     Software update: the ORCA program system, version 4.0
     WIRES Comput. Molec. Sci., 2018 8(1)1-6
     doi.org/10.1002/wcms.1327
  3. Neese,F.; Wennmohs,F.; Becker,U.; Riplinger,C.
     The ORCA quantum chemistry program package
     J. Chem. Phys., 2020 152 Art. No. L224108
     doi.org/10.1063/5.0004608

List of optional additional citations

  1. Neese,F.
     Approximate second-order SCF convergence for spin unrestricted wavefunctions
     Chem. Phys. Lett., 2000 325(1-3)93-98
     doi.org/10.1016/s0009-2614(00)00662-x

Timings for individual modules:

Sum of individual times          ...        0.366 sec (=   0.006 min)
Geometry relaxation              ...        0.063 sec (=   0.001 min)  17.2 %
XTB module                       ...        0.303 sec (=   0.005 min)  82.8 %
                             ****ORCA TERMINATED NORMALLY****
TOTAL RUN TIME: 0 days 0 hours 0 minutes 0 seconds 735 msec
