
                                 *****************
                                 * O   R   C   A *
                                 *****************

                                            #,                                       
                                            ###                                      
                                            ####                                     
                                            #####                                    
                                            ######                                   
                                           ########,                                 
                                     ,,################,,,,,                         
                               ,,#################################,,                 
                          ,,##########################################,,             
                       ,#########################################, ''#####,          
                    ,#############################################,,   '####,        
                  ,##################################################,,,,####,       
                ,###########''''           ''''###############################       
              ,#####''   ,,,,##########,,,,          '''####'''          '####       
            ,##' ,,,,###########################,,,                        '##       
           ' ,,###''''                  '''############,,,                           
         ,,##''                                '''############,,,,        ,,,,,,###''
      ,#''                                            '''#######################'''  
     '                                                          ''''####''''         
             ,#######,   #######,   ,#######,      ##                                
            ,#'     '#,  ##    ##  ,#'     '#,    #''#        ,####,   ,####,        
            ##       ##  ##   ,#'  ##            #'  '#       #'       #'  '#        
            ##       ##  #######   ##           ,######,      #####,   #    #        
            '#,     ,#'  ##    ##  '#,     ,#' ,#      #,     #,   #   #,  ,#        
             '#######'   ##     ##  '#######'  #'      '#     '####' # '####'        



                #########################################################
                #                        -***-                          #
                #          Department of theory and spectroscopy        #
                #                                                       #
                #                      Frank Neese                      #
                #                                                       #
                #     Directorship, Architecture, Infrastructure        #
                #                    SHARK, DRIVERS                     #
                #        Core code/Algorithms in most modules           #
                #                                                       #
                #        Max Planck Institute fuer Kohlenforschung      #
                #                Kaiser Wilhelm Platz 1                 #
                #                 D-45470 Muelheim/Ruhr                 #
                #                      Germany                          #
                #                                                       #
                #                  All rights reserved                  #
                #                        -***-                          #
                #########################################################


                         Program Version 6.0.1  -  RELEASE   -


 With contributions from (in alphabetic order):
[Max-Planck-Institut fuer Kohlenforschung]                               
  Daniel Aravena         : Magnetic Suceptibility                        
  Michael Atanasov       : Ab Initio Ligand Field Theory (pilot matlab implementation)
  Alexander A. Auer      : GIAO ZORA, VPT2 properties, NMR spectrum      
  Ute Becker             : All parallelization in ORCA, NUMFREQ, NUMCALC 
  Giovanni Bistoni       : ED, misc. LED, open-shell LED, HFLD           
  Martin Brehm           : Molecular dynamics                            
  Dmytro Bykov           : pre 5.0 version of the SCF Hessian            
  Marcos Casanova-Páez   : Triplet and SCS-CIS(D). UHF-(DLPNO)-IP/EA/STEOM-CCSD. UHF-CVS-IP/STEOM-CCSD   
  Vijay G. Chilkuri      : MRCI spin determinant printing, contributions to CSF-ICE 
  Pauline Colinet        : FMM embedding                                 
  Dipayan Datta          : RHF DLPNO-CCSD density                        
  Achintya Kumar Dutta   : EOM-CC, STEOM-CC                              
  Nicolas Foglia         : Exact transition moments, OPA infrastructure, MCD improvements    
  Dmitry Ganyushin       : Spin-Orbit,Spin-Spin,Magnetic field MRCI      
  Miquel Garcia-Rates    : C-PCM and meta-GGA Hessian, CCSD/C-PCM, Gaussian charge scheme 
  Tiago L. C. Gouveia    : GS-ROHF, GS-ROCIS                             
  Yang Guo               : DLPNO-NEVPT2, F12-NEVPT2, CIM, IAO-localization        
  Andreas Hansen         : Spin unrestricted coupled pair/coupled cluster methods 
  Ingolf Harden          : AUTO-CI MPn and infrastructure                
  Benjamin Helmich-Paris : MC-RPA, TRAH-(SCF,CASSCF), AVAS, COSX integrals, SCF dyn. polar. 
  Lee Huntington         : MR-EOM, pCC                                   
  Robert Izsak           : Overlap fitted RIJCOSX, COSX-SCS-MP3, EOM     
  Riya Kayal             : Wick's Theorem for AUTO-CI, AUTO-CI UHF-CCSDT 
  Emily Kempfer          : AUTO-CI, RHF CISDT and CCSDT                  
  Christian Kollmar      : KDIIS, OOCD, Brueckner-CCSD(T), CCSD density, CASPT2, CASPT2-K, improved NEVPT2 
  Axel Koslowski         : Symmetry handling                             
  Simone Kossmann        : meta-GGA functionals, TD-DFT gradient, OOMP2, (MP2 Hessian; deprecated post 5.0) 
  Lucas Lang             : DCDCAS                                        
  Marvin Lechner         : AUTO-CI (C++ implementation), FIC-MRCC        
  Spencer Leger          : CASSCF response                               
  Dagmar Lenk            : GEPOL surface, SMD, ORCA-2-JSON               
  Dimitrios Liakos       : Extrapolation schemes; Compound Job, initial MDCI parallelization 
  Dimitrios Manganas     : Further ROCIS development; embedding schemes. LFT, Crystal Embedding 
  Dimitrios Pantazis     : SARC Basis sets                               
  Anastasios Papadopoulos: AUTO-CI, single reference methods and gradients 
  Taras Petrenko         : pre 6.0 DFT Hessian and TD-DFT gradient, (ASA, deprecated), ECA, 1-Electron XAS/XES, NRVS 
  Peter Pinski           : DLPNO-MP2, DLPNO-MP2 Gradient                 
  Christoph Reimann      : Effective Core Potentials                     
  Marius Retegan         : Local ZFS, SOC                                
  Christoph Riplinger    : Optimizer, TS searches, QM/MM, DLPNO-CCSD(T), (RO)-DLPNO pert. Triples 
  Michael Roemelt        : Original ROCIS implementation                 
  Masaaki Saitow         : Open-shell DLPNO-CCSD energy and density      
  Barbara Sandhoefer     : DKH picture change effects                    
  Kantharuban Sivalingam : CASSCF convergence/infrastructure, NEVPT2 and variants, FIC-MRCI 
  Bernardo de Souza      : ESD, SOC TD-DFT                               
  Georgi L. Stoychev     : AutoAux, RI-MP2 NMR, DLPNO-MP2 response, X2C  
  Van Anh Tran           : RI-MP2 g-tensors                              
  Willem Van den Heuvel  : Paramagnetic NMR                              
  Zikuan Wang            : NOTCH, Electric field optimization            
  Frank Wennmohs         : Technical directorship and infrastructure     
  Hang Xu                : AUTO-CI-Response properties                   
                                                                         
[FACCTs GmbH]                                                            
  Markus Bursch, Miquel Garcia-Rates, Christoph Riplinger, Bernardo de Souza, Georgi L. Stoychev 
                                                                 
  APM, Basis sets (HGBS, AHGBS, def-TZVP (Ac-Lr), def2-XVPD (La-Lu)), CI-OPT, improved COSX, DLPNO-Multilevel,           
  DOCKER, DRACO, updates on ESD, GOAT, IRC, LR-CPCM, MBIS, meta-GGA TD-DFT gradient, ML-optimized integration grids, 
  MM, NACMEs, nearIR, NEB, NEB-TS, NL-DFT gradient (VV10), 2- and 3-layer-ONIOM, interface openCOSMO-RS, QMMM,   
  Crystal-QMMM, SF, symmetry and pop. for TD-DFT, r2SCAN hybrids, SOLVATOR                                   
                                                                         
[Other institutions]                                                     
  V. Asgeirsson          : NEB                                           
  Christoph Bannwarth    : sTDA-DFT, sTD-DFT, PBEh-3c, B97-3c, D3        
  Sebastian Ehlert       : rSCAN, r2SCAN, r2SCAN-3c, D4, dhf basis sets  
  Marvin Friede          : D4 for Fr, Ra, Ac-Lr                          
  Lars Goerigk           : TD-DFT with DH, B97 family of functionals     
  Stefan Grimme          : VdW corrections, initial TS optimization, DFT functionals, gCP, sTDA/sTD-DF 
  Waldemar Hujo          : DFT-NL                                        
  H. Jonsson             : NEB                                           
  Holger Kruse           : gCP                                           
  Marcel Mueller         : wB97X-3c, vDZP basis set                      
  Hagen Neugebauer       : wr2SCAN                                       
  Tobias Risthaus        : range-separated hybrid DFT                    
  Lukas Wittmann         : regularized MP2, r2SCAN double-hybrids, wr2SCAN        
                                                                         
We gratefully acknowledge several colleagues who have allowed us to      
interface, adapt or use parts of their codes:                            
  Ed Valeev, F. Pavosevic, A. Kumar             : LibInt (2-el integral package), F12 methods 
  Garnet Chan, S. Sharma, J. Yang, R. Olivares  : DMRG                   
  Ulf Ekstrom                                   : XCFun DFT Library      
  Mihaly Kallay                                 : mrcc  (arbitrary order and MRCC methods)
  Frank Weinhold                                : gennbo (NPA and NBO analysis)           
  Simon Mueller                                 : openCOSMO-RS                            
  Christopher J. Cramer and Donald G. Truhlar   : smd solvation model                     
  S Lehtola, MJT Oliveira, MAL Marques          : LibXC Library                           
  Liviu Ungur et al                             : ANISO software                          


 Your calculation uses the libint2 library for the computation of 2-el integrals
 For citations please refer to: http://libint.valeyev.net

 Your ORCA version has been built with support for libXC version: 6.2.2
 For citations please refer to: https://libxc.gitlab.io

 This ORCA versions uses:
   CBLAS   interface :  Fast vector & matrix operations
   LAPACKE interface :  Fast linear algebra routines
   SCALAPACK package :  Parallel linear algebra routines
   Shared memory     :  Shared parallel matrices
   BLAS/LAPACK       :  OpenBLAS 0.3.27  USE64BITINT DYNAMIC_ARCH NO_AFFINITY SkylakeX SINGLE_THREADED
        Core in use  :  SkylakeX
   Copyright (c) 2011-2014, The OpenBLAS Project


NOTE: MaxCore=2500 MB was set to SCF,MP2,MDCI,CIPSI,MRCI and CIS
      => If you want to overwrite this, your respective input block should be placed after the MaxCore statement


***************************************
The coordinates will be read from file: /home/mchrnwsk/qmmm/runs/expanding_reaction_scope/ellipticine/optimise/sub+H2./sub+H2.xyz
***************************************


Your calculation utilizes the semiempirical GFN2-xTB method
Please cite in your paper:
C. Bannwarth, Ehlert S., S. Grimme,  J. Chem. Theory Comput., 15, (2019), 1652.
   

================================================================================

================================================================================
                                        WARNINGS
                       Please study these warnings very carefully!
================================================================================


WARNING: Geometry Optimization
  ===> : Switching off AutoStart
         For restart on a previous wavefunction, please use MOREAD

WARNING: Found dipole moment calculation with XTB calculation
  ===> : Switching off dipole moment calculation


================================================================================
                                       INPUT FILE
================================================================================
NAME = /home/mchrnwsk/qmmm/runs/expanding_reaction_scope/ellipticine/optimise/sub+H2./0_SUB_opt_unrest/SUB_opt_unrest.inp
|  1>  # ------------------------------------------------------------------------------------- #
|  2>  # QM Unrestrained Optimization for singly-oxidised 4,7-dimethyl-5-anilinoquinoline      #
|  3>  # ------------------------------------------------------------------------------------- #
|  4> 
|  5> ! XTB2 Opt PAL8
|  6> %maxcore 2500
|  7> 
|  8> *xyzfile 1 3 /home/mchrnwsk/qmmm/runs/expanding_reaction_scope/ellipticine/optimise/sub+H2./sub+H2.xyz
|  9> 
| 10> 
| 11>                          ****END OF INPUT****
================================================================================

                       *****************************
                       * Geometry Optimization Run *
                       *****************************

Geometry optimization settings:
Update method            Update   .... BFGS
Choice of coordinates    CoordSys .... (2022) Redundant Internals
Initial Hessian          InHess   .... Almloef's Model
Max. no of cycles        MaxIter  .... 105

Convergence Tolerances:
Energy Change            TolE     ....  5.0000e-06 Eh
Max. Gradient            TolMAXG  ....  3.0000e-04 Eh/bohr
RMS Gradient             TolRMSG  ....  1.0000e-04 Eh/bohr
Max. Displacement        TolMAXD  ....  4.0000e-03 bohr
RMS Displacement         TolRMSD  ....  2.0000e-03 bohr
Strict Convergence                .... False

------------------------------------------------------------------------------
                        ORCA OPTIMIZATION COORDINATE SETUP
------------------------------------------------------------------------------

The optimization will be done in redundant internal coordinates (2022)
Making redundant internal coordinates   ...  (2022 redundants) done
Evaluating the initial hessian          ...  (Almloef) done
Evaluating the coordinates              ...  done
Calculating the B-matrix                .... done
Calculating the G-matrix                .... done
Diagonalizing the G-matrix              .... done
Small eigenvalue found = 3.388e-03
Small eigenvalue found = 1.360e-02
Small eigenvalue found = 2.529e-02
Small eigenvalue found = 2.841e-02
The first mode is                       ....   81
The number of degrees of freedom        ....   99

    -----------------------------------------------------------------
                    Redundant Internal Coordinates


    -----------------------------------------------------------------
         Definition                    Initial Value    Approx d2E/dq
    -----------------------------------------------------------------
      1. B(C   1,C   0)                  1.5070         0.406529   
      2. B(C   2,C   1)                  1.3999         0.602398   
      3. B(C   3,C   2)                  1.4202         0.559092   
      4. B(C   4,C   3)                  1.4044         0.592516   
      5. B(C   5,C   4)                  1.5070         0.406526   
      6. B(C   6,C   4)                  1.3596         0.698501   
      7. B(C   7,C   1)                  1.3799         0.648409   
      8. B(C   7,C   6)                  1.4006         0.601000   
      9. B(N   8,C   7)                  1.3949         0.549645   
     10. B(C   9,N   8)                  1.3971         0.545145   
     11. B(C  10,C   9)                  1.3893         0.626494   
     12. B(C  11,C  10)                  1.3809         0.645932   
     13. B(C  12,C  11)                  1.3829         0.641380   
     14. B(C  13,C  12)                  1.3829         0.641246   
     15. B(C  14,C   9)                  1.3892         0.626542   
     16. B(C  14,C  13)                  1.3811         0.645669   
     17. B(H  15,N   8)                  0.9699         0.501304   
     18. B(C  16,C   3)                  1.4035         0.594611   
     19. B(N  17,C  16)                  1.3129         0.742877   
     20. B(C  18,N  17)                  1.3265         0.706735   
     21. B(C  19,C  18)                  1.3613         0.694261   
     22. B(C  19,C   2)                  1.4079         0.584959   
     23. B(H  20,C   0)                  1.0900         0.360073   
     24. B(H  21,C   0)                  1.0900         0.360055   
     25. B(H  22,C   0)                  1.0900         0.360113   
     26. B(H  23,C   5)                  1.0899         0.360173   
     27. B(H  24,C   5)                  1.0900         0.360037   
     28. B(H  25,C   5)                  1.0900         0.360116   
     29. B(H  26,C   6)                  1.0800         0.373578   
     30. B(H  27,C  10)                  1.0800         0.373528   
     31. B(H  28,C  11)                  1.0801         0.373484   
     32. B(H  29,C  12)                  1.0800         0.373549   
     33. B(H  30,C  13)                  1.0800         0.373617   
     34. B(H  31,C  14)                  1.0800         0.373625   
     35. B(H  32,C  16)                  1.0799         0.373672   
     36. B(H  33,C  18)                  1.0800         0.373595   
     37. B(H  34,C  19)                  1.0800         0.373638   
     38. A(H  21,C   0,H  22)          109.4688         0.290835   
     39. A(H  20,C   0,H  21)          109.4681         0.290830   
     40. A(C   1,C   0,H  22)          109.4739         0.328867   
     41. A(H  20,C   0,H  22)          109.4702         0.290838   
     42. A(C   1,C   0,H  20)          109.4712         0.328861   
     43. A(C   1,C   0,H  21)          109.4751         0.328858   
     44. A(C   0,C   1,C   7)          120.3334         0.405824   
     45. A(C   2,C   1,C   7)          119.3308         0.435318   
     46. A(C   0,C   1,C   2)          120.3352         0.400590   
     47. A(C   1,C   2,C   3)          119.6377         0.423894   
     48. A(C   3,C   2,C  19)          118.2287         0.421674   
     49. A(C   1,C   2,C  19)          122.1336         0.427339   
     50. A(C   2,C   3,C   4)          119.5620         0.422642   
     51. A(C   4,C   3,C  16)          121.9086         0.427326   
     52. A(C   2,C   3,C  16)          118.5294         0.422909   
     53. A(C   3,C   4,C   6)          119.7675         0.439884   
     54. A(C   3,C   4,C   5)          120.1137         0.399425   
     55. A(C   5,C   4,C   6)          120.1188         0.411205   
     56. A(C   4,C   5,H  25)          109.4731         0.328867   
     57. A(C   4,C   5,H  23)          109.4691         0.328875   
     58. A(H  23,C   5,H  25)          109.4769         0.290851   
     59. A(H  23,C   5,H  24)          109.4676         0.290841   
     60. A(H  24,C   5,H  25)          109.4745         0.290833   
     61. A(C   4,C   5,H  24)          109.4662         0.328855   
     62. A(C   4,C   6,H  26)          119.5001         0.362391   
     63. A(C   7,C   6,H  26)          119.4965         0.353245   
     64. A(C   4,C   6,C   7)          121.0029         0.441015   
     65. A(C   6,C   7,N   8)          119.6521         0.419685   
     66. A(C   1,C   7,N   8)          119.6487         0.425417   
     67. A(C   1,C   7,C   6)          120.6972         0.435136   
     68. A(C   7,N   8,C   9)          119.9968         0.409803   
     69. A(C   9,N   8,H  15)          120.0036         0.359799   
     70. A(C   7,N   8,H  15)          119.9996         0.360303   
     71. A(N   8,C   9,C  10)          120.0767         0.422189   
     72. A(C  10,C   9,C  14)          119.8462         0.435703   
     73. A(N   8,C   9,C  14)          120.0764         0.422195   
     74. A(C   9,C  10,C  11)          119.9247         0.438103   
     75. A(C  11,C  10,H  27)          120.0353         0.357584   
     76. A(C   9,C  10,H  27)          120.0400         0.355733   
     77. A(C  10,C  11,H  28)          119.9591         0.357577   
     78. A(C  10,C  11,C  12)          120.0782         0.439964   
     79. A(C  12,C  11,H  28)          119.9627         0.357148   
     80. A(C  13,C  12,H  29)          119.9219         0.357145   
     81. A(C  11,C  12,H  29)          119.9248         0.357158   
     82. A(C  11,C  12,C  13)          120.1532         0.439386   
     83. A(C  12,C  13,H  30)          119.9629         0.357156   
     84. A(C  14,C  13,H  30)          119.9661         0.357574   
     85. A(C  12,C  13,C  14)          120.0706         0.439915   
     86. A(C  13,C  14,H  31)          120.0332         0.357575   
     87. A(C   9,C  14,H  31)          120.0397         0.355754   
     88. A(C   9,C  14,C  13)          119.9251         0.438077   
     89. A(N  17,C  16,H  32)          120.0385         0.363964   
     90. A(C   3,C  16,H  32)          120.0375         0.352622   
     91. A(C   3,C  16,N  17)          119.9240         0.442164   
     92. A(C  16,N  17,C  18)          122.7959         0.453225   
     93. A(N  17,C  18,C  19)          121.8540         0.450664   
     94. A(C  19,C  18,H  33)          119.0774         0.362018   
     95. A(N  17,C  18,H  33)          119.0686         0.360865   
     96. A(C   2,C  19,C  18)          118.6680         0.438385   
     97. A(C  18,C  19,H  34)          120.6623         0.362025   
     98. A(C   2,C  19,H  34)          120.6697         0.351641   
     99. D(C   7,C   1,C   0,H  21)     29.7233         0.012248   
    100. D(C   2,C   1,C   0,H  22)    -30.0002         0.012248   
    101. D(C   2,C   1,C   0,H  21)   -150.0012         0.012248   
    102. D(C   2,C   1,C   0,H  20)     90.0002         0.012248   
    103. D(C   7,C   1,C   0,H  20)    -90.2752         0.012248   
    104. D(C   3,C   2,C   1,C   7)      0.2494         0.025027   
    105. D(C   3,C   2,C   1,C   0)    179.9767         0.025027   
    106. D(C  19,C   2,C   1,C   7)   -179.7729         0.025027   
    107. D(C  19,C   2,C   1,C   0)     -0.0456         0.025027   
    108. D(C  16,C   3,C   2,C   1)    179.9763         0.021409   
    109. D(C  16,C   3,C   2,C  19)     -0.0023         0.021409   
    110. D(C   4,C   3,C   2,C   1)     -0.0008         0.021409   
    111. D(C   4,C   3,C   2,C  19)   -179.9794         0.021409   
    112. D(C   5,C   4,C   3,C  16)      0.0466         0.024170   
    113. D(C   5,C   4,C   3,C   2)   -179.9771         0.024170   
    114. D(C   6,C   4,C   3,C   2)      0.0019         0.024170   
    115. D(C   6,C   4,C   3,C  16)   -179.9744         0.024170   
    116. D(H  25,C   5,C   4,C   3)    -30.0010         0.012248   
    117. D(H  24,C   5,C   4,C   6)     30.0181         0.012248   
    118. D(H  23,C   5,C   4,C   6)    -89.9731         0.012248   
    119. D(H  23,C   5,C   4,C   3)     90.0058         0.012248   
    120. D(H  24,C   5,C   4,C   3)   -150.0031         0.012248   
    121. D(H  26,C   6,C   4,C   5)     -0.0207         0.034351   
    122. D(H  26,C   6,C   4,C   3)   -179.9996         0.034351   
    123. D(C   7,C   6,C   4,C   5)    179.7270         0.034351   
    124. D(C   7,C   6,C   4,C   3)     -0.2519         0.034351   
    125. D(N   8,C   7,C   1,C   2)   -179.9950         0.029263   
    126. D(N   8,C   7,C   1,C   0)      0.2777         0.029263   
    127. D(C   6,C   7,C   1,C   2)     -0.5005         0.029263   
    128. D(C   1,C   7,C   6,C   4)      0.5099         0.024905   
    129. D(C   6,C   7,C   1,C   0)    179.7722         0.029263   
    130. D(N   8,C   7,C   6,H  26)     -0.2479         0.024905   
    131. D(N   8,C   7,C   6,C   4)   -179.9956         0.024905   
    132. D(C   1,C   7,C   6,H  26)   -179.7424         0.024905   
    133. D(H  15,N   8,C   7,C   6)    172.3644         0.024077   
    134. D(H  15,N   8,C   7,C   1)     -8.1358         0.024077   
    135. D(C   9,N   8,C   7,C   6)     -7.6370         0.024077   
    136. D(C   9,N   8,C   7,C   1)    171.8628         0.024077   
    137. D(C  14,C   9,N   8,H  15)    137.2253         0.023664   
    138. D(C  14,C   9,N   8,C   7)    -42.7733         0.023664   
    139. D(C  10,C   9,N   8,H  15)    -42.4953         0.023664   
    140. D(C  10,C   9,N   8,C   7)    137.5060         0.023664   
    141. D(H  27,C  10,C   9,C  14)   -179.7728         0.027194   
    142. D(H  27,C  10,C   9,N   8)     -0.0514         0.027194   
    143. D(C  11,C  10,C   9,C  14)      0.2553         0.027194   
    144. D(C  11,C  10,C   9,N   8)    179.9766         0.027194   
    145. D(H  28,C  11,C  10,H  27)      0.0050         0.029025   
    146. D(H  28,C  11,C  10,C   9)    179.9770         0.029025   
    147. D(C  12,C  11,C  10,H  27)   -179.9715         0.029025   
    148. D(C  12,C  11,C  10,C   9)      0.0004         0.029025   
    149. D(H  29,C  12,C  11,H  28)      0.0077         0.028590   
    150. D(H  29,C  12,C  11,C  10)    179.9842         0.028590   
    151. D(C  13,C  12,C  11,H  28)   -179.9823         0.028590   
    152. D(C  13,C  12,C  11,C  10)     -0.0058         0.028590   
    153. D(H  30,C  13,C  12,H  29)      0.0116         0.028577   
    154. D(H  30,C  13,C  12,C  11)   -179.9985         0.028577   
    155. D(C  14,C  13,C  12,H  29)    179.7633         0.028577   
    156. D(C  14,C  13,C  12,C  11)     -0.2467         0.028577   
    157. D(C   9,C  14,C  13,C  12)      0.5024         0.029000   
    158. D(H  31,C  14,C   9,C  10)    179.9985         0.027199   
    159. D(H  31,C  14,C   9,N   8)      0.2771         0.027199   
    160. D(C  13,C  14,C   9,C  10)     -0.5066         0.027199   
    161. D(C  13,C  14,C   9,N   8)    179.7720         0.027199   
    162. D(H  31,C  14,C  13,H  30)     -0.2509         0.029000   
    163. D(H  31,C  14,C  13,C  12)    179.9974         0.029000   
    164. D(C   9,C  14,C  13,H  30)   -179.7458         0.029000   
    165. D(H  32,C  16,C   3,C   4)     -0.0492         0.024351   
    166. D(H  32,C  16,C   3,C   2)    179.9742         0.024351   
    167. D(N  17,C  16,C   3,C   4)    179.9749         0.024351   
    168. D(N  17,C  16,C   3,C   2)     -0.0017         0.024351   
    169. D(C  18,N  17,C  16,H  32)   -179.9724         0.041828   
    170. D(C  18,N  17,C  16,C   3)      0.0035         0.041828   
    171. D(H  33,C  18,N  17,C  16)    179.9978         0.037473   
    172. D(C  19,C  18,N  17,C  16)     -0.0011         0.037473   
    173. D(H  34,C  19,C  18,H  33)     -0.0196         0.033900   
    174. D(H  34,C  19,C  18,N  17)    179.9793         0.033900   
    175. D(C   2,C  19,C  18,H  33)    179.9980         0.033900   
    176. D(C   2,C  19,C  18,N  17)     -0.0031         0.033900   
    177. D(H  34,C  19,C   2,C   3)   -179.9778         0.023528   
    178. D(H  34,C  19,C   2,C   1)      0.0442         0.023528   
    179. D(C  18,C  19,C   2,C   3)      0.0046         0.023528   
    180. D(C  18,C  19,C   2,C   1)   -179.9734         0.023528   
    -----------------------------------------------------------------

Number of atoms                         .... 35
Number of degrees of freedom            .... 180


         *************************************************************
         *                GEOMETRY OPTIMIZATION CYCLE   1            *
         *************************************************************
---------------------------------
CARTESIAN COORDINATES (ANGSTROEM)
---------------------------------
  C     0.972900    2.840600   -0.207400
  C     0.994400    1.340700   -0.063000
  C     2.211900    0.650100   -0.038700
  C     2.214900   -0.763500    0.098500
  C     0.995500   -1.451600    0.208200
  C     0.984200   -2.951400    0.354800
  C    -0.174700   -0.759800    0.182100
  C    -0.185600    0.634700    0.052300
  N    -1.402500    1.316100    0.028800
  C    -2.602000    0.601900   -0.026600
  C    -3.679600    0.988700    0.760300
  C    -4.863900    0.280800    0.702700
  C    -4.978000   -0.812000   -0.137000
  C    -3.907400   -1.199800   -0.921800
  C    -2.721800   -0.493200   -0.873000
  H    -1.415900    2.285700    0.050900
  C     3.448600   -1.432300    0.119600
  N     4.565300   -0.750100    0.013600
  C     4.591400    0.569800   -0.115500
  C     3.450200    1.311300   -0.146900
  H     0.932000    3.103300   -1.264500
  H     0.096200    3.242100    0.300900
  H     1.874900    3.261400    0.236900
  H     1.017100   -3.213300    1.412300
  H     0.074100   -3.353100   -0.090800
  H     1.853000   -3.372500   -0.151100
  H    -1.109900   -1.293300    0.266800
  H    -3.591100    1.841800    1.416700
  H    -5.701900    0.580800    1.314500
  H    -5.905300   -1.364010   -0.179900
  H    -3.999900   -2.053700   -1.576500
  H    -1.886110   -0.796600   -1.486100
  H     3.479300   -2.506800    0.223300
  H     5.544900    1.070200   -0.198000
  H     3.493900    2.385200   -0.252400

----------------------------
CARTESIAN COORDINATES (A.U.)
----------------------------
  NO LB    ZA    FRAG    MASS        X           Y           Z
   0 C   6.0000    0    12.011    1.838515    5.367956   -0.391929
   1 C   6.0000    0    12.011    1.879144    2.533556   -0.119053
   2 C   6.0000    0    12.011    4.179885    1.228511   -0.073132
   3 C   6.0000    0    12.011    4.185554   -1.442806    0.186138
   4 C   6.0000    0    12.011    1.881222   -2.743126    0.393441
   5 C   6.0000    0    12.011    1.859868   -5.577338    0.670475
   6 C   6.0000    0    12.011   -0.330135   -1.435814    0.344119
   7 C   6.0000    0    12.011   -0.350733    1.199409    0.098833
   8 N   7.0000    0    14.007   -2.650341    2.487069    0.054424
   9 C   6.0000    0    12.011   -4.917067    1.137426   -0.050267
  10 C   6.0000    0    12.011   -6.953436    1.868372    1.436759
  11 C   6.0000    0    12.011   -9.191439    0.530635    1.327911
  12 C   6.0000    0    12.011   -9.407057   -1.534458   -0.258892
  13 C   6.0000    0    12.011   -7.383916   -2.267293   -1.741950
  14 C   6.0000    0    12.011   -5.143457   -0.932013   -1.649731
  15 H   1.0000    0     1.008   -2.675663    4.319347    0.096187
  16 C   6.0000    0    12.011    6.516910   -2.706655    0.226011
  17 N   7.0000    0    14.007    8.627167   -1.417484    0.025700
  18 C   6.0000    0    12.011    8.676489    1.076766   -0.218263
  19 C   6.0000    0    12.011    6.519933    2.477998   -0.277601
  20 H   1.0000    0     1.008    1.761225    5.864387   -2.389559
  21 H   1.0000    0     1.008    0.181792    6.126681    0.568619
  22 H   1.0000    0     1.008    3.543048    6.163153    0.447676
  23 H   1.0000    0     1.008    1.922040   -6.072257    2.668860
  24 H   1.0000    0     1.008    0.140029   -6.336441   -0.171587
  25 H   1.0000    0     1.008    3.501663   -6.373101   -0.285538
  26 H   1.0000    0     1.008   -2.097407   -2.443983    0.504179
  27 H   1.0000    0     1.008   -6.786196    3.480498    2.677175
  28 H   1.0000    0     1.008  -10.775029    1.097553    2.484045
  29 H   1.0000    0     1.008  -11.159400   -2.577605   -0.339962
  30 H   1.0000    0     1.008   -7.558716   -3.880931   -2.979153
  31 H   1.0000    0     1.008   -3.564231   -1.505356   -2.808322
  32 H   1.0000    0     1.008    6.574924   -4.737165    0.421976
  33 H   1.0000    0     1.008   10.478342    2.022385   -0.374166
  34 H   1.0000    0     1.008    6.602514    4.507375   -0.476967

      -----------------------------------------------------------      
     |                   =====================                   |     
     |                           x T B                           |     
     |                   =====================                   |     
     |                         S. Grimme                         |     
     |          Mulliken Center for Theoretical Chemistry        |     
     |                    University of Bonn                     |     
      -----------------------------------------------------------      

   * xtb version 6.7.1 (edcfbbe) compiled by 'albert@albert-system' on 2024-07-22

   xtb is free software: you can redistribute it and/or modify it under
   the terms of the GNU Lesser General Public License as published by
   the Free Software Foundation, either version 3 of the License, or
   (at your option) any later version.
   
   xtb is distributed in the hope that it will be useful,
   but WITHOUT ANY WARRANTY; without even the implied warranty of
   MERCHANTABILITY or FITNESS FOR A PARTICULAR PURPOSE.  See the
   GNU Lesser General Public License for more details.
   
   Cite this work as:
   * C. Bannwarth, E. Caldeweyher, S. Ehlert, A. Hansen, P. Pracht,
     J. Seibert, S. Spicher, S. Grimme, WIREs Comput. Mol. Sci., 2020, 11,
     e01493. DOI: 10.1002/wcms.1493
   
   for GFN2-xTB:
   * C. Bannwarth, S. Ehlert and S. Grimme., J. Chem. Theory Comput., 2019,
     15, 1652-1671. DOI: 10.1021/acs.jctc.8b01176
   for GFN1-xTB:
   * S. Grimme, C. Bannwarth, P. Shushkov, J. Chem. Theory Comput., 2017,
     13, 1989-2009. DOI: 10.1021/acs.jctc.7b00118
   for GFN0-xTB:
   * P. Pracht, E. Caldeweyher, S. Ehlert, S. Grimme, ChemRxiv, 2019, preprint.
     DOI: 10.26434/chemrxiv.8326202.v1
   for GFN-FF:
   * S. Spicher and S. Grimme, Angew. Chem. Int. Ed., 2020, 59, 15665-15673.
     DOI: 10.1002/anie.202004239
   
   for ALPB and GBSA implicit solvation:
   * S. Ehlert, M. Stahn, S. Spicher, S. Grimme, J. Chem. Theory Comput.,
     2021, 17, 4250-4261. DOI: 10.1021/acs.jctc.1c00471
   
   for ddCOSMO and CPCM-X implicit solvation:
   * M. Stahn, S. Ehlert, S. Grimme, J. Phys. Chem. A,
     2023, XX, XXXX-XXXX. DOI: 10.1021/acs.jpca.3c04382
   
   for DFT-D4:
   * E. Caldeweyher, C. Bannwarth and S. Grimme, J. Chem. Phys., 2017,
     147, 034112. DOI: 10.1063/1.4993215
   * E. Caldeweyher, S. Ehlert, A. Hansen, H. Neugebauer, S. Spicher,
     C. Bannwarth and S. Grimme, J. Chem. Phys., 2019, 150, 154122.
     DOI: 10.1063/1.5090222
   * E. Caldeweyher, J.-M. Mewes, S. Ehlert and S. Grimme, Phys. Chem. Chem. Phys.
     2020, 22, 8499-8512. DOI: 10.1039/D0CP00502A
   
   for sTDA-xTB:
   * S. Grimme and C. Bannwarth, J. Chem. Phys., 2016, 145, 054103.
     DOI: 10.1063/1.4959605
   
   in the mass-spec context:
   * V. Asgeirsson, C. Bauer and S. Grimme, Chem. Sci., 2017, 8, 4879.
     DOI: 10.1039/c7sc00601b
   * J. Koopman and S. Grimme, ACS Omega 2019, 4, 12, 15120-15133.
     DOI: 10.1021/acsomega.9b02011
   
   for metadynamics refer to:
   * S. Grimme, J. Chem. Theory Comput., 2019, 155, 2847-2862
     DOI: 10.1021/acs.jctc.9b00143
   
   for SPH calculations refer to:
   * S. Spicher and S. Grimme, J. Chem. Theory Comput., 2021, 17, 1701-1714
     DOI: 10.1021/acs.jctc.0c01306
   
   for ONIOM refer to:
   * C. Plett, A. Katbashev, S. Ehlert, S. Grimme, M. Bursch,
     Phys. Chem. Chem. Phys., 2023, 25, 17860-17868. DOI: 10.1039/D3CP02178E
   
   for DIPRO refer to:
   * J. Kohn, N. Gildemeister, S. Grimme, D. Fazzi, A. Hansen,
     J. Chem. Phys., 2023, just accepted.
   
   for PTB refer to:
   * S. Grimme, M. Mueller, A. Hansen, J. Chem. Phys., 2023, 158, 124111.
     DOI: 10.1063/5.0137838
   
   with help from (in alphabetical order)
   P. Atkinson, C. Bannwarth, F. Bohle, G. Brandenburg, E. Caldeweyher
   M. Checinski, S. Dohm, S. Ehlert, S. Ehrlich, I. Gerasimov, C. Hölzer
   A. Katbashev, J. Kohn, J. Koopman, C. Lavigne, S. Lehtola, F. März, M. Müller,
   F. Musil, H. Neugebauer, J. Pisarek, C. Plett, P. Pracht, F. Pultar,
   J. Seibert, P. Shushkov, S. Spicher, M. Stahn, M. Steiner, T. Strunk,
   J. Stückrath, T. Rose, and J. Unsleber
   
 * started run on 2025/05/14 at 11:33:45.542     
   ID    Z sym.   atoms
    1    6 C      1-8, 10-15, 17, 19, 20
    2    7 N      9, 18
    3    1 H      16, 21-35

           -------------------------------------------------
          |                Calculation Setup                |
           -------------------------------------------------

          program call               : /home/mchrnwsk/orca_6_0_1_linux_x86-64_shared_openmpi416/otool_xtb /home/mchrnwsk/qmmm/runs/expanding_reaction_scope/ellipticine/optimise/sub+H2./0_SUB_opt_unrest/SUB_opt_unrest_XTB.xyz --grad -c 1 -u 2 -P 8 --namespace /home/mchrnwsk/qmmm/runs/expanding_reaction_scope/ellipticine/optimise/sub+H2./0_SUB_opt_unrest/SUB_opt_unrest --input /home/mchrnwsk/qmmm/runs/expanding_reaction_scope/ellipticine/optimise/sub+H2./0_SUB_opt_unrest/SUB_opt_unrest_XTB.input.tmp --acc 0.200000
          calculation namespace      : /home/mchrnwsk/qmmm/runs/expanding_reaction_scope/ellipticine/optimise/sub+H2./0_SUB_opt_unrest/SUB_opt_unrest
          coordinate file            : /home/mchrnwsk/qmmm/runs/expanding_reaction_scope/ellipticine/optimise/sub+H2./0_SUB_opt_unrest/SUB_opt_unrest_XTB.xyz
          omp threads                :                     8


           -------------------------------------------------
          |                 G F N 2 - x T B                 |
           -------------------------------------------------

        Reference                      10.1021/acs.jctc.8b01176
      * Hamiltonian:
        H0-scaling (s, p, d)           1.850000    2.230000    2.230000
        zeta-weighting                 0.500000
      * Dispersion:
        s8                             2.700000
        a1                             0.520000
        a2                             5.000000
        s9                             5.000000
      * Repulsion:
        kExp                           1.500000    1.000000
        rExp                           1.000000
      * Coulomb:
        alpha                          2.000000
        third order                    shell-resolved
        anisotropic                    true
        a3                             3.000000
        a5                             4.000000
        cn-shift                       1.200000
        cn-exp                         4.000000
        max-rad                        5.000000


          ...................................................
          :                      SETUP                      :
          :.................................................:
          :  # basis functions                  92          :
          :  # atomic orbitals                  92          :
          :  # shells                           54          :
          :  # electrons                        93          :
          :  max. iterations                   250          :
          :  Hamiltonian                  GFN2-xTB          :
          :  restarted?                      false          :
          :  GBSA solvation                  false          :
          :  PC potential                    false          :
          :  electronic temp.          300.0000000     K    :
          :  accuracy                    0.2000000          :
          :  -> integral cutoff          0.3198970E+02      :
          :  -> integral neglect         0.2000000E-08      :
          :  -> SCF convergence          0.2000000E-06 Eh   :
          :  -> wf. convergence          0.2000000E-04 e    :
          :  Broyden damping             0.4000000          :
          :  net charge                          1          :
          :  unpaired electrons                  2          :
          ...................................................

 iter      E             dE          RMSdq      gap      omega  full diag
   1    -50.7611354 -0.507611E+02  0.422E+00    2.10       0.0  T
   2    -50.6985609  0.625745E-01  0.296E+00    2.16       1.0  T
   3    -50.7001755 -0.161453E-02  0.238E+00    1.55       1.0  T
   4    -50.8650253 -0.164850E+00  0.117E+00    2.58       1.0  T
   5    -50.8451512  0.198741E-01  0.852E-01    2.60       1.0  T
   6    -50.8634129 -0.182617E-01  0.691E-01    2.47       1.0  T
   7    -50.8767892 -0.133763E-01  0.497E-01    2.61       1.0  T
   8    -50.8888306 -0.120414E-01  0.947E-02    2.64       1.0  T
   9    -50.8877593  0.107131E-02  0.150E-01    2.62       1.0  T
  10    -50.8889565 -0.119723E-02  0.131E-02    2.63       1.3  T
  11    -50.8887314  0.225152E-03  0.612E-02    2.63       1.0  T
  12    -50.8888302 -0.988569E-04  0.448E-02    2.62       1.0  T
  13    -50.8888977 -0.674492E-04  0.317E-02    2.63       1.0  T
  14    -50.8889276 -0.299611E-04  0.232E-02    2.63       1.0  T
  15    -50.8889619 -0.342912E-04  0.100E-03    2.63      16.9  T
  16    -50.8889614  0.538493E-06  0.306E-03    2.63       5.5  T
  17    -50.8889619 -0.525516E-06  0.108E-03    2.63      15.7  T
  18    -50.8889620 -0.700028E-07  0.248E-04    2.63      68.2  T
  19    -50.8889620 -0.357250E-08  0.733E-05    2.63     230.7  T
  20    -50.8889620 -0.349814E-09  0.532E-06    2.63    3176.3  T

   *** convergence criteria satisfied after 20 iterations ***

         #    Occupation            Energy/Eh            Energy/eV
      -------------------------------------------------------------
         1        2.0000           -0.8186366             -22.2762
       ...           ...                  ...                  ...
        41        2.0000           -0.5585572             -15.1991
        42        2.0000           -0.5575107             -15.1706
        43        2.0000           -0.5482446             -14.9185
        44        2.0000           -0.5393029             -14.6752
        45        2.0000           -0.5266950             -14.3321
        46        1.7068           -0.5087771             -13.8445
        47        1.2932           -0.5071053             -13.7990 (HOMO)
        48                         -0.4105483             -11.1716 (LUMO)
        49                         -0.3816028             -10.3839
        50                         -0.3572163              -9.7203
        51                         -0.3552873              -9.6679
        52                         -0.3345491              -9.1035
       ...                                ...                  ...
        92                          0.5548408              15.0980
      -------------------------------------------------------------
                  HL-Gap            0.0965570 Eh            2.6274 eV
             Fermi-level           -0.4833840 Eh          -13.1535 eV
 
 transition dipole moment (au) for excitation:          46          47
     X       Y       Z   
   1.1670  -0.3618   0.0373  total (au/Debye):    1.222   3.107
 dE (eV)             :    0.045
 oscillator strength :  0.23552E-02

 SCC (total)                   0 d,  0 h,  0 min,  0.024 sec
 SCC setup                      ...        0 min,  0.000 sec (  0.514%)
 Dispersion                     ...        0 min,  0.000 sec (  0.761%)
 classical contributions        ...        0 min,  0.000 sec (  0.056%)
 integral evaluation            ...        0 min,  0.001 sec (  3.174%)
 iterations                     ...        0 min,  0.019 sec ( 76.140%)
 molecular gradient             ...        0 min,  0.002 sec (  8.239%)
 printout                       ...        0 min,  0.003 sec ( 11.058%)

         :::::::::::::::::::::::::::::::::::::::::::::::::::::
         ::                     SUMMARY                     ::
         :::::::::::::::::::::::::::::::::::::::::::::::::::::
         :: total energy             -49.965002227890 Eh    ::
         :: gradient norm              0.098933609445 Eh/a0 ::
         :: HOMO-LUMO gap              2.627449409464 eV    ::
         ::.................................................::
         :: SCC energy               -50.888903066211 Eh    ::
         :: -> isotropic ES            0.071784851669 Eh    ::
         :: -> anisotropic ES         -0.010917408938 Eh    ::
         :: -> anisotropic XC          0.034527775388 Eh    ::
         :: -> dispersion             -0.037076544407 Eh    ::
         :: repulsion energy           0.923900838321 Eh    ::
         :: add. restraining           0.000000000000 Eh    ::
         :: total charge               1.000000000000 e     ::
         :::::::::::::::::::::::::::::::::::::::::::::::::::::


Property printout bound to 'properties.out'

           -------------------------------------------------
          | TOTAL ENERGY              -49.965002227890 Eh   |
          | GRADIENT NORM               0.098933609445 Eh/α |
          | HOMO-LUMO GAP               2.627449409464 eV   |
           -------------------------------------------------

------------------------------------------------------------------------
 * finished run on 2025/05/14 at 11:33:45.573     
------------------------------------------------------------------------
 total:
 * wall-time:     0 d,  0 h,  0 min,  0.031 sec
 *  cpu-time:     0 d,  0 h,  0 min,  0.235 sec
 * ratio c/w:     7.598 speedup
 SCF:
 * wall-time:     0 d,  0 h,  0 min,  0.025 sec
 *  cpu-time:     0 d,  0 h,  0 min,  0.195 sec
 * ratio c/w:     7.927 speedup


-------------------------   --------------------
FINAL SINGLE POINT ENERGY       -49.965002227890
-------------------------   --------------------


-------------
DIPOLE MOMENT
-------------
                                X             Y             Z
Total Dipole Moment    :     -0.57700       0.79600       0.00100
                        -----------------------------------------
Magnitude (a.u.)       :      0.98313
Magnitude (Debye)      :      2.49892

------------------------------------------------------------------------------
                         ORCA GEOMETRY RELAXATION STEP
------------------------------------------------------------------------------

Reading the OPT-File                    .... done
Getting information on internals        .... done
Copying old internal coords+grads       .... done
Making the new internal coordinates     .... (2022 redundants) done
Validating the new internal coordinates .... (2022 redundants) done
Calculating the B-matrix                .... done
Calculating the G,G- and P matrices     .... done
Transforming gradient to internals      .... done
Projecting the internal gradient        .... done
Number of atoms                         ....  35
Number of internal coordinates          .... 180
Current Energy                          ....   -49.965002228 Eh
Current gradient norm                   ....     0.098933609 Eh/bohr
Maximum allowed component of the step   ....  0.300
Current trust radius                    ....  0.300
Evaluating the initial hessian          ....  (Almloef) done
Projecting the Hessian                  .... done
Forming the augmented Hessian           .... done
Diagonalizing the augmented Hessian     .... done
Last element of RFO vector              ....  0.895105437
Lowest eigenvalues of augmented Hessian:
 -0.030117026  0.012248173  0.012385411  0.021707386  0.022846640
Length of the computed step             ....  0.498102798
Warning: the length of the step is outside the trust region - taking restricted step instead
The input lambda is                     ....     0.011248
   iter:   5  x=   -0.011981  g=   85.723407 f(x)=     0.969616
   iter:  10  x=   -0.079108  g=    1.309214 f(x)=     0.002516
The output lambda is                    ....    -0.079160 (14 iterations)
The final length of the internal step   ....  0.300000000
Converting the step to Cartesian space:
 Initial RMS(Int)=    0.0223606798
Transforming coordinates:
 Iter   0:  RMS(Cart)=    0.2175086426 RMS(Int)=    1.9276903960
 Iter   5:  RMS(Cart)=    0.0000039201 RMS(Int)=    0.0000019144
done
Storing new coordinates                 .... done

                                .--------------------.
          ----------------------|Geometry convergence|-------------------------
          Item                value                   Tolerance       Converged
          ---------------------------------------------------------------------
          RMS gradient        0.0074190710            0.0001000000      NO
          MAX gradient        0.0431544244            0.0003000000      NO
          RMS step            0.0223606798            0.0020000000      NO
          MAX step            0.0953901505            0.0040000000      NO
          ........................................................
          Max(Bonds)      0.0316      Max(Angles)    5.23
          Max(Dihed)        5.47      Max(Improp)    0.00
          ---------------------------------------------------------------------

The optimization has not yet converged - more geometry cycles are needed


    ---------------------------------------------------------------------------
                         Redundant Internal Coordinates
                            (Angstroem and degrees)

        Definition                    Value    dE/dq     Step     New-Value
    ----------------------------------------------------------------------------
     1. B(C   1,C   0)                1.5070 -0.000587  0.0006    1.5076   
     2. B(C   2,C   1)                1.3999 -0.019869  0.0156    1.4155   
     3. B(C   3,C   2)                1.4202 -0.007575  0.0066    1.4268   
     4. B(C   4,C   3)                1.4044 -0.023504  0.0183    1.4227   
     5. B(C   5,C   4)                1.5070  0.002190 -0.0024    1.5046   
     6. B(C   6,C   4)                1.3596 -0.008398  0.0056    1.3652   
     7. B(C   7,C   1)                1.3799 -0.026578  0.0195    1.3994   
     8. B(C   7,C   6)                1.4006 -0.014615  0.0114    1.4120   
     9. B(N   8,C   7)                1.3949  0.006424 -0.0054    1.3895   
    10. B(C   9,N   8)                1.3971 -0.003606  0.0031    1.4002   
    11. B(C  10,C   9)                1.3893 -0.008708  0.0066    1.3959   
    12. B(C  11,C  10)                1.3809  0.000154 -0.0002    1.3808   
    13. B(C  12,C  11)                1.3829 -0.005857  0.0042    1.3870   
    14. B(C  13,C  12)                1.3829 -0.005654  0.0041    1.3870   
    15. B(C  14,C   9)                1.3892 -0.014600  0.0111    1.4003   
    16. B(C  14,C  13)                1.3811 -0.000702  0.0006    1.3816   
    17. B(H  15,N   8)                0.9699 -0.034662  0.0316    1.0015   
    18. B(C  16,C   3)                1.4035 -0.011890  0.0091    1.4126   
    19. B(N  17,C  16)                1.3129  0.016096 -0.0108    1.3021   
    20. B(C  18,N  17)                1.3265  0.007610 -0.0054    1.3210   
    21. B(C  19,C  18)                1.3613 -0.013175  0.0092    1.3705   
    22. B(C  19,C   2)                1.4079 -0.009289  0.0080    1.4159   
    23. B(H  20,C   0)                1.0900  0.000429 -0.0005    1.0895   
    24. B(H  21,C   0)                1.0900  0.003091 -0.0037    1.0863   
    25. B(H  22,C   0)                1.0900  0.004823 -0.0058    1.0842   
    26. B(H  23,C   5)                1.0899  0.001331 -0.0016    1.0883   
    27. B(H  24,C   5)                1.0900  0.002810 -0.0034    1.0867   
    28. B(H  25,C   5)                1.0900  0.004657 -0.0056    1.0844   
    29. B(H  26,C   6)                1.0800  0.003716 -0.0043    1.0757   
    30. B(H  27,C  10)                1.0800  0.000111 -0.0001    1.0799   
    31. B(H  28,C  11)                1.0801  0.000947 -0.0011    1.0790   
    32. B(H  29,C  12)                1.0800  0.000670 -0.0008    1.0792   
    33. B(H  30,C  13)                1.0800  0.000733 -0.0009    1.0791   
    34. B(H  31,C  14)                1.0800  0.001022 -0.0012    1.0788   
    35. B(H  32,C  16)                1.0799  0.003041 -0.0036    1.0764   
    36. B(H  33,C  18)                1.0800 -0.000341  0.0004    1.0804   
    37. B(H  34,C  19)                1.0800  0.003092 -0.0036    1.0763   
    38. A(H  21,C   0,H  22)          109.47  0.006949   -1.09    108.38   
    39. A(H  20,C   0,H  21)          109.47  0.003612   -0.45    109.02   
    40. A(C   1,C   0,H  22)          109.47 -0.005193    0.73    110.20   
    41. A(H  20,C   0,H  22)          109.47  0.003541   -0.54    108.93   
    42. A(C   1,C   0,H  20)          109.47 -0.001324    0.24    109.71   
    43. A(C   1,C   0,H  21)          109.48 -0.007584    1.11    110.59   
    44. A(C   0,C   1,C   7)          120.33 -0.001003    0.08    120.42   
    45. A(C   2,C   1,C   7)          119.33  0.001247   -0.07    119.26   
    46. A(C   0,C   1,C   2)          120.34 -0.000248   -0.01    120.33   
    47. A(C   1,C   2,C   3)          119.64 -0.002485    0.25    119.88   
    48. A(C   3,C   2,C  19)          118.23  0.007080   -0.69    117.54   
    49. A(C   1,C   2,C  19)          122.13 -0.004595    0.44    122.57   
    50. A(C   2,C   3,C   4)          119.56  0.000245   -0.06    119.50   
    51. A(C   4,C   3,C  16)          121.91 -0.006728    0.77    122.67   
    52. A(C   2,C   3,C  16)          118.53  0.006483   -0.70    117.83   
    53. A(C   3,C   4,C   6)          119.77  0.001730   -0.25    119.52   
    54. A(C   3,C   4,C   5)          120.11 -0.011687    1.41    121.52   
    55. A(C   5,C   4,C   6)          120.12  0.009957   -1.16    118.96   
    56. A(C   4,C   5,H  25)          109.47 -0.008151    1.24    110.72   
    57. A(C   4,C   5,H  23)          109.47 -0.000999    0.15    109.62   
    58. A(H  23,C   5,H  25)          109.48  0.002640   -0.24    109.24   
    59. A(H  23,C   5,H  24)          109.47  0.002884   -0.59    108.88   
    60. A(H  24,C   5,H  25)          109.47  0.004843   -0.70    108.77   
    61. A(C   4,C   5,H  24)          109.47 -0.001218    0.13    109.60   
    62. A(C   4,C   6,H  26)          119.50  0.007056   -0.87    118.63   
    63. A(C   7,C   6,H  26)          119.50 -0.000169    0.07    119.57   
    64. A(C   4,C   6,C   7)          121.00 -0.006879    0.79    121.79   
    65. A(C   6,C   7,N   8)          119.65 -0.015601    1.76    121.41   
    66. A(C   1,C   7,N   8)          119.65  0.009457   -1.11    118.54   
    67. A(C   1,C   7,C   6)          120.70  0.006123   -0.64    120.06   
    68. A(C   7,N   8,C   9)          120.00 -0.043154    5.23    125.23   
    69. A(C   9,N   8,H  15)          120.00  0.022897   -2.79    117.21   
    70. A(C   7,N   8,H  15)          120.00  0.020257   -2.44    117.56   
    71. A(N   8,C   9,C  10)          120.08  0.011304   -1.31    118.76   
    72. A(C  10,C   9,C  14)          119.85  0.003943   -0.42    119.43   
    73. A(N   8,C   9,C  14)          120.08 -0.015230    1.72    121.80   
    74. A(C   9,C  10,C  11)          119.92 -0.001861    0.22    120.14   
    75. A(C  11,C  10,H  27)          120.04  0.000285   -0.02    120.01   
    76. A(C   9,C  10,H  27)          120.04  0.001577   -0.19    119.85   
    77. A(C  10,C  11,H  28)          119.96  0.001144   -0.13    119.83   
    78. A(C  10,C  11,C  12)          120.08 -0.001046    0.09    120.17   
    79. A(C  12,C  11,H  28)          119.96 -0.000098    0.04    120.00   
    80. A(C  13,C  12,H  29)          119.92 -0.000093    0.03    119.95   
    81. A(C  11,C  12,H  29)          119.92 -0.000157    0.04    119.96   
    82. A(C  11,C  12,C  13)          120.15  0.000249   -0.07    120.09   
    83. A(C  12,C  13,H  30)          119.96  0.000079    0.00    119.96   
    84. A(C  14,C  13,H  30)          119.97  0.001173   -0.14    119.82   
    85. A(C  12,C  13,C  14)          120.07 -0.001249    0.14    120.21   
    86. A(C  13,C  14,H  31)          120.03  0.001574   -0.22    119.82   
    87. A(C   9,C  14,H  31)          120.04 -0.001573    0.20    120.24   
    88. A(C   9,C  14,C  13)          119.93 -0.000027    0.03    119.96   
    89. A(N  17,C  16,H  32)          120.04  0.014566   -1.74    118.30   
    90. A(C   3,C  16,H  32)          120.04 -0.001529    0.35    120.39   
    91. A(C   3,C  16,N  17)          119.92 -0.013037    1.39    121.32   
    92. A(C  16,N  17,C  18)          122.80  0.002926   -0.50    122.30   
    93. A(N  17,C  18,C  19)          121.85 -0.000471    0.03    121.88   
    94. A(C  19,C  18,H  33)          119.08 -0.006571    0.87    119.95   
    95. A(N  17,C  18,H  33)          119.07  0.007042   -0.90    118.17   
    96. A(C   2,C  19,C  18)          118.67 -0.002982    0.46    119.13   
    97. A(C  18,C  19,H  34)          120.66  0.004647   -0.64    120.02   
    98. A(C   2,C  19,H  34)          120.67 -0.001665    0.18    120.85   
    99. D(C   7,C   1,C   0,H  21)     29.72 -0.001309    0.60     30.32   
   100. D(C   2,C   1,C   0,H  22)    -30.00  0.000446   -0.23    -30.23   
   101. D(C   2,C   1,C   0,H  21)   -150.00 -0.000239   -0.02   -150.02   
   102. D(C   2,C   1,C   0,H  20)     90.00  0.000792   -0.30     89.70   
   103. D(C   7,C   1,C   0,H  20)    -90.28 -0.000277    0.32    -89.95   
   104. D(C   3,C   2,C   1,C   7)      0.25  0.001690   -0.93     -0.68   
   105. D(C   3,C   2,C   1,C   0)    179.98  0.000624   -0.32    179.66   
   106. D(C  19,C   2,C   1,C   7)   -179.77  0.001730   -0.96   -180.73   
   107. D(C  19,C   2,C   1,C   0)     -0.05  0.000665   -0.34     -0.39   
   108. D(C  16,C   3,C   2,C   1)    179.98 -0.001035    0.59    180.56   
   109. D(C  16,C   3,C   2,C  19)     -0.00 -0.001072    0.61      0.61   
   110. D(C   4,C   3,C   2,C   1)     -0.00  0.000179   -0.09     -0.09   
   111. D(C   4,C   3,C   2,C  19)   -179.98  0.000142   -0.07   -180.05   
   112. D(C   5,C   4,C   3,C  16)      0.05  0.000090   -0.00      0.04   
   113. D(C   5,C   4,C   3,C   2)   -179.98 -0.001163    0.70   -179.28   
   114. D(C   6,C   4,C   3,C   2)      0.00 -0.000802    0.43      0.43   
   115. D(C   6,C   4,C   3,C  16)   -179.97  0.000452   -0.27   -180.24   
   116. D(H  25,C   5,C   4,C   3)    -30.00  0.002673   -1.28    -31.28   
   117. D(H  24,C   5,C   4,C   6)     30.02  0.002117   -1.00     29.02   
   118. D(H  23,C   5,C   4,C   6)    -89.97 -0.000058   -0.45    -90.43   
   119. D(H  23,C   5,C   4,C   3)     90.01  0.000303   -0.72     89.29   
   120. D(H  24,C   5,C   4,C   3)   -150.00  0.002478   -1.26   -151.27   
   121. D(H  26,C   6,C   4,C   5)     -0.02 -0.002324    1.18      1.16   
   122. D(H  26,C   6,C   4,C   3)   -180.00 -0.002681    1.45   -178.55   
   123. D(C   7,C   6,C   4,C   5)    179.73 -0.000048   -0.02    179.71   
   124. D(C   7,C   6,C   4,C   3)     -0.25 -0.000405    0.24     -0.01   
   125. D(N   8,C   7,C   1,C   2)   -179.99 -0.000035    0.06   -179.94   
   126. D(N   8,C   7,C   1,C   0)      0.28  0.001028   -0.56     -0.28   
   127. D(C   6,C   7,C   1,C   2)     -0.50 -0.002987    1.63      1.13   
   128. D(C   1,C   7,C   6,C   4)      0.51  0.002357   -1.30     -0.79   
   129. D(C   6,C   7,C   1,C   0)    179.77 -0.001924    1.01    180.78   
   130. D(N   8,C   7,C   6,H  26)     -0.25  0.001825   -0.95     -1.20   
   131. D(N   8,C   7,C   6,C   4)   -180.00 -0.000469    0.25   -179.74   
   132. D(C   1,C   7,C   6,H  26)   -179.74  0.004651   -2.50   -182.25   
   133. D(H  15,N   8,C   7,C   6)    172.36  0.009865   -5.47    166.90   
   134. D(H  15,N   8,C   7,C   1)     -8.14  0.007054   -3.93    -12.06   
   135. D(C   9,N   8,C   7,C   6)     -7.64  0.008706   -4.82    -12.46   
   136. D(C   9,N   8,C   7,C   1)    171.86  0.005895   -3.28    168.58   
   137. D(C  14,C   9,N   8,H  15)    137.23  0.007891   -4.37    132.86   
   138. D(C  14,C   9,N   8,C   7)    -42.77  0.009050   -5.01    -47.79   
   139. D(C  10,C   9,N   8,H  15)    -42.50  0.003790   -2.14    -44.64   
   140. D(C  10,C   9,N   8,C   7)    137.51  0.004949   -2.79    134.72   
   141. D(H  27,C  10,C   9,C  14)   -179.77 -0.001537    0.84   -178.93   
   142. D(H  27,C  10,C   9,N   8)     -0.05  0.002501   -1.37     -1.42   
   143. D(C  11,C  10,C   9,C  14)      0.26 -0.002815    1.53      1.78   
   144. D(C  11,C  10,C   9,N   8)    179.98  0.001223   -0.69    179.29   
   145. D(H  28,C  11,C  10,H  27)      0.01  0.000019   -0.01     -0.01   
   146. D(H  28,C  11,C  10,C   9)    179.98  0.001297   -0.69    179.28   
   147. D(C  12,C  11,C  10,H  27)   -179.97  0.000165   -0.09   -180.07   
   148. D(C  12,C  11,C  10,C   9)      0.00  0.001443   -0.78     -0.78   
   149. D(H  29,C  12,C  11,H  28)      0.01 -0.000547    0.29      0.30   
   150. D(H  29,C  12,C  11,C  10)    179.98 -0.000693    0.37    180.36   
   151. D(C  13,C  12,C  11,H  28)   -179.98  0.000725   -0.39   -180.38   
   152. D(C  13,C  12,C  11,C  10)     -0.01  0.000579   -0.31     -0.31   
   153. D(H  30,C  13,C  12,H  29)      0.01 -0.000932    0.50      0.51   
   154. D(H  30,C  13,C  12,C  11)   -180.00 -0.002204    1.18   -178.82   
   155. D(C  14,C  13,C  12,H  29)    179.76  0.000083   -0.04    179.72   
   156. D(C  14,C  13,C  12,C  11)     -0.25 -0.001188    0.64      0.39   
   157. D(C   9,C  14,C  13,C  12)      0.50 -0.000206    0.11      0.62   
   158. D(H  31,C  14,C   9,C  10)    180.00  0.005620   -3.02    176.98   
   159. D(H  31,C  14,C   9,N   8)      0.28  0.001508   -0.80     -0.52   
   160. D(C  13,C  14,C   9,C  10)     -0.51  0.002195   -1.19     -1.70   
   161. D(C  13,C  14,C   9,N   8)    179.77 -0.001917    1.03    180.80   
   162. D(H  31,C  14,C  13,H  30)     -0.25 -0.002635    1.40      1.15   
   163. D(H  31,C  14,C  13,C  12)    180.00 -0.003647    1.94    181.94   
   164. D(C   9,C  14,C  13,H  30)   -179.75  0.000807   -0.42   -180.17   
   165. D(H  32,C  16,C   3,C   4)     -0.05 -0.000010    0.02     -0.03   
   166. D(H  32,C  16,C   3,C   2)    179.97  0.001232   -0.67    179.30   
   167. D(N  17,C  16,C   3,C   4)    179.97 -0.000182    0.10    180.08   
   168. D(N  17,C  16,C   3,C   2)     -0.00  0.001060   -0.59     -0.59   
   169. D(C  18,N  17,C  16,H  32)   -179.97 -0.000577    0.30   -179.68   
   170. D(C  18,N  17,C  16,C   3)      0.00 -0.000409    0.22      0.22   
   171. D(H  33,C  18,N  17,C  16)    180.00 -0.000190    0.11    180.10   
   172. D(C  19,C  18,N  17,C  16)     -0.00 -0.000244    0.14      0.14   
   173. D(H  34,C  19,C  18,H  33)     -0.02 -0.000166    0.09      0.07   
   174. D(H  34,C  19,C  18,N  17)    179.98 -0.000111    0.05    180.03   
   175. D(C   2,C  19,C  18,H  33)    180.00  0.000149   -0.07    179.93   
   176. D(C   2,C  19,C  18,N  17)     -0.00  0.000203   -0.11     -0.11   
   177. D(H  34,C  19,C   2,C   3)   -179.98  0.000776   -0.43   -180.41   
   178. D(H  34,C  19,C   2,C   1)      0.04  0.000738   -0.41     -0.36   
   179. D(C  18,C  19,C   2,C   3)      0.00  0.000462   -0.27     -0.27   
   180. D(C  18,C  19,C   2,C   1)   -179.97  0.000424   -0.25   -180.22   
    ----------------------------------------------------------------------------

Geometry step timings:
Preparation and reading OPT file:      0.000 s ( 4.295 %)
Internal coordinates            :      0.000 s ( 0.368 %)
B/P matrices and projection     :      0.002 s (29.590 %)
Hessian update/contruction      :      0.001 s (11.336 %)
Making the step                 :      0.003 s (39.546 %)
Converting the step to Cartesian:      0.000 s ( 2.853 %)
Storing new data                :      0.000 s ( 0.322 %)
Checking convergence            :      0.000 s ( 0.123 %)
Final printing                  :      0.001 s (11.520 %)
Total time                      :      0.007 s

Time for energy+gradient        :      0.034 s
Time for complete geometry iter :      0.042 s

         *************************************************************
         *                GEOMETRY OPTIMIZATION CYCLE   2            *
         *************************************************************
---------------------------------
CARTESIAN COORDINATES (ANGSTROEM)
---------------------------------
  C     0.903595    2.780202   -0.220400
  C     0.989811    1.284236   -0.054278
  C     2.249151    0.638047   -0.040118
  C     2.319986   -0.777461    0.124946
  C     1.119530   -1.525990    0.275964
  C     1.141911   -3.017985    0.469056
  C    -0.083219   -0.880501    0.251827
  C    -0.173532    0.518128    0.080319
  N    -1.401749    1.167605    0.062648
  C    -2.647487    0.536963   -0.041902
  C    -3.678908    0.943063    0.806464
  C    -4.922918    0.350416    0.718539
  C    -5.158161   -0.639845   -0.223733
  C    -4.145665   -1.033794   -1.085945
  C    -2.896859   -0.448233   -1.005310
  H    -1.398976    2.166161    0.139894
  C     3.599411   -1.375938    0.144679
  N     4.681350   -0.665058    0.005353
  C     4.648739    0.645540   -0.156856
  C     3.468897    1.342152   -0.185808
  H     0.839994    3.029207   -1.279158
  H     0.026970    3.171023    0.288379
  H     1.782927    3.254834    0.200252
  H     1.205438   -3.248137    1.530886
  H     0.228844   -3.450912    0.069410
  H     1.990180   -3.458311   -0.043219
  H    -0.980504   -1.457180    0.390944
  H    -3.498783    1.714442    1.540441
  H    -5.713283    0.660057    1.384570
  H    -6.133387   -1.096822   -0.293401
  H    -4.336331   -1.790842   -1.830935
  H    -2.123357   -0.737005   -1.699607
  H     3.701134   -2.439153    0.278130
  H     5.587168    1.169239   -0.267858
  H     3.477171    2.410042   -0.320170

----------------------------
CARTESIAN COORDINATES (A.U.)
----------------------------
  NO LB    ZA    FRAG    MASS        X           Y           Z
   0 C   6.0000    0    12.011    1.707548    5.253820   -0.416495
   1 C   6.0000    0    12.011    1.870472    2.426855   -0.102571
   2 C   6.0000    0    12.011    4.250279    1.205735   -0.075812
   3 C   6.0000    0    12.011    4.384139   -1.469188    0.236114
   4 C   6.0000    0    12.011    2.115606   -2.883703    0.521496
   5 C   6.0000    0    12.011    2.157898   -5.703165    0.886388
   6 C   6.0000    0    12.011   -0.157261   -1.663905    0.475884
   7 C   6.0000    0    12.011   -0.327928    0.979120    0.151781
   8 N   7.0000    0    14.007   -2.648922    2.206454    0.118387
   9 C   6.0000    0    12.011   -5.003025    1.014712   -0.079184
  10 C   6.0000    0    12.011   -6.952129    1.782130    1.523996
  11 C   6.0000    0    12.011   -9.302966    0.662190    1.357841
  12 C   6.0000    0    12.011   -9.747511   -1.209132   -0.422793
  13 C   6.0000    0    12.011   -7.834172   -1.953588   -2.052140
  14 C   6.0000    0    12.011   -5.474270   -0.847037   -1.899761
  15 H   1.0000    0     1.008   -2.643681    4.093451    0.264361
  16 C   6.0000    0    12.011    6.801902   -2.600146    0.273404
  17 N   7.0000    0    14.007    8.846469   -1.256778    0.010115
  18 C   6.0000    0    12.011    8.784844    1.219894   -0.296415
  19 C   6.0000    0    12.011    6.555265    2.536300   -0.351127
  20 H   1.0000    0     1.008    1.587358    5.724372   -2.417258
  21 H   1.0000    0     1.008    0.050966    5.992365    0.544957
  22 H   1.0000    0     1.008    3.369244    6.150744    0.378421
  23 H   1.0000    0     1.008    2.277947   -6.138089    2.892955
  24 H   1.0000    0     1.008    0.432452   -6.521278    0.131167
  25 H   1.0000    0     1.008    3.760895   -6.535261   -0.081671
  26 H   1.0000    0     1.008   -1.852884   -2.753672    0.738777
  27 H   1.0000    0     1.008   -6.611742    3.239825    2.911011
  28 H   1.0000    0     1.008  -10.796540    1.247328    2.616458
  29 H   1.0000    0     1.008  -11.590423   -2.072694   -0.554448
  30 H   1.0000    0     1.008   -8.194477   -3.384200   -3.459966
  31 H   1.0000    0     1.008   -4.012563   -1.392737   -3.211792
  32 H   1.0000    0     1.008    6.994130   -4.609332    0.525589
  33 H   1.0000    0     1.008   10.558218    2.209542   -0.506179
  34 H   1.0000    0     1.008    6.570901    4.554319   -0.605034

      -----------------------------------------------------------      
     |                   =====================                   |     
     |                           x T B                           |     
     |                   =====================                   |     
     |                         S. Grimme                         |     
     |          Mulliken Center for Theoretical Chemistry        |     
     |                    University of Bonn                     |     
      -----------------------------------------------------------      

   * xtb version 6.7.1 (edcfbbe) compiled by 'albert@albert-system' on 2024-07-22

   xtb is free software: you can redistribute it and/or modify it under
   the terms of the GNU Lesser General Public License as published by
   the Free Software Foundation, either version 3 of the License, or
   (at your option) any later version.
   
   xtb is distributed in the hope that it will be useful,
   but WITHOUT ANY WARRANTY; without even the implied warranty of
   MERCHANTABILITY or FITNESS FOR A PARTICULAR PURPOSE.  See the
   GNU Lesser General Public License for more details.
   
   Cite this work as:
   * C. Bannwarth, E. Caldeweyher, S. Ehlert, A. Hansen, P. Pracht,
     J. Seibert, S. Spicher, S. Grimme, WIREs Comput. Mol. Sci., 2020, 11,
     e01493. DOI: 10.1002/wcms.1493
   
   for GFN2-xTB:
   * C. Bannwarth, S. Ehlert and S. Grimme., J. Chem. Theory Comput., 2019,
     15, 1652-1671. DOI: 10.1021/acs.jctc.8b01176
   for GFN1-xTB:
   * S. Grimme, C. Bannwarth, P. Shushkov, J. Chem. Theory Comput., 2017,
     13, 1989-2009. DOI: 10.1021/acs.jctc.7b00118
   for GFN0-xTB:
   * P. Pracht, E. Caldeweyher, S. Ehlert, S. Grimme, ChemRxiv, 2019, preprint.
     DOI: 10.26434/chemrxiv.8326202.v1
   for GFN-FF:
   * S. Spicher and S. Grimme, Angew. Chem. Int. Ed., 2020, 59, 15665-15673.
     DOI: 10.1002/anie.202004239
   
   for ALPB and GBSA implicit solvation:
   * S. Ehlert, M. Stahn, S. Spicher, S. Grimme, J. Chem. Theory Comput.,
     2021, 17, 4250-4261. DOI: 10.1021/acs.jctc.1c00471
   
   for ddCOSMO and CPCM-X implicit solvation:
   * M. Stahn, S. Ehlert, S. Grimme, J. Phys. Chem. A,
     2023, XX, XXXX-XXXX. DOI: 10.1021/acs.jpca.3c04382
   
   for DFT-D4:
   * E. Caldeweyher, C. Bannwarth and S. Grimme, J. Chem. Phys., 2017,
     147, 034112. DOI: 10.1063/1.4993215
   * E. Caldeweyher, S. Ehlert, A. Hansen, H. Neugebauer, S. Spicher,
     C. Bannwarth and S. Grimme, J. Chem. Phys., 2019, 150, 154122.
     DOI: 10.1063/1.5090222
   * E. Caldeweyher, J.-M. Mewes, S. Ehlert and S. Grimme, Phys. Chem. Chem. Phys.
     2020, 22, 8499-8512. DOI: 10.1039/D0CP00502A
   
   for sTDA-xTB:
   * S. Grimme and C. Bannwarth, J. Chem. Phys., 2016, 145, 054103.
     DOI: 10.1063/1.4959605
   
   in the mass-spec context:
   * V. Asgeirsson, C. Bauer and S. Grimme, Chem. Sci., 2017, 8, 4879.
     DOI: 10.1039/c7sc00601b
   * J. Koopman and S. Grimme, ACS Omega 2019, 4, 12, 15120-15133.
     DOI: 10.1021/acsomega.9b02011
   
   for metadynamics refer to:
   * S. Grimme, J. Chem. Theory Comput., 2019, 155, 2847-2862
     DOI: 10.1021/acs.jctc.9b00143
   
   for SPH calculations refer to:
   * S. Spicher and S. Grimme, J. Chem. Theory Comput., 2021, 17, 1701-1714
     DOI: 10.1021/acs.jctc.0c01306
   
   for ONIOM refer to:
   * C. Plett, A. Katbashev, S. Ehlert, S. Grimme, M. Bursch,
     Phys. Chem. Chem. Phys., 2023, 25, 17860-17868. DOI: 10.1039/D3CP02178E
   
   for DIPRO refer to:
   * J. Kohn, N. Gildemeister, S. Grimme, D. Fazzi, A. Hansen,
     J. Chem. Phys., 2023, just accepted.
   
   for PTB refer to:
   * S. Grimme, M. Mueller, A. Hansen, J. Chem. Phys., 2023, 158, 124111.
     DOI: 10.1063/5.0137838
   
   with help from (in alphabetical order)
   P. Atkinson, C. Bannwarth, F. Bohle, G. Brandenburg, E. Caldeweyher
   M. Checinski, S. Dohm, S. Ehlert, S. Ehrlich, I. Gerasimov, C. Hölzer
   A. Katbashev, J. Kohn, J. Koopman, C. Lavigne, S. Lehtola, F. März, M. Müller,
   F. Musil, H. Neugebauer, J. Pisarek, C. Plett, P. Pracht, F. Pultar,
   J. Seibert, P. Shushkov, S. Spicher, M. Stahn, M. Steiner, T. Strunk,
   J. Stückrath, T. Rose, and J. Unsleber
   
 * started run on 2025/05/14 at 11:33:45.583     
   ID    Z sym.   atoms
    1    6 C      1-8, 10-15, 17, 19, 20
    2    7 N      9, 18
    3    1 H      16, 21-35

           -------------------------------------------------
          |                Calculation Setup                |
           -------------------------------------------------

          program call               : /home/mchrnwsk/orca_6_0_1_linux_x86-64_shared_openmpi416/otool_xtb /home/mchrnwsk/qmmm/runs/expanding_reaction_scope/ellipticine/optimise/sub+H2./0_SUB_opt_unrest/SUB_opt_unrest_XTB.xyz --grad -c 1 -u 2 -P 8 --namespace /home/mchrnwsk/qmmm/runs/expanding_reaction_scope/ellipticine/optimise/sub+H2./0_SUB_opt_unrest/SUB_opt_unrest --input /home/mchrnwsk/qmmm/runs/expanding_reaction_scope/ellipticine/optimise/sub+H2./0_SUB_opt_unrest/SUB_opt_unrest_XTB.input.tmp --acc 0.200000
          calculation namespace      : /home/mchrnwsk/qmmm/runs/expanding_reaction_scope/ellipticine/optimise/sub+H2./0_SUB_opt_unrest/SUB_opt_unrest
          coordinate file            : /home/mchrnwsk/qmmm/runs/expanding_reaction_scope/ellipticine/optimise/sub+H2./0_SUB_opt_unrest/SUB_opt_unrest_XTB.xyz
          omp threads                :                     8


           -------------------------------------------------
          |                 G F N 2 - x T B                 |
           -------------------------------------------------

        Reference                      10.1021/acs.jctc.8b01176
      * Hamiltonian:
        H0-scaling (s, p, d)           1.850000    2.230000    2.230000
        zeta-weighting                 0.500000
      * Dispersion:
        s8                             2.700000
        a1                             0.520000
        a2                             5.000000
        s9                             5.000000
      * Repulsion:
        kExp                           1.500000    1.000000
        rExp                           1.000000
      * Coulomb:
        alpha                          2.000000
        third order                    shell-resolved
        anisotropic                    true
        a3                             3.000000
        a5                             4.000000
        cn-shift                       1.200000
        cn-exp                         4.000000
        max-rad                        5.000000

q/qsh data taken from xtbrestart
CAMM data taken from xtbrestart

          ...................................................
          :                      SETUP                      :
          :.................................................:
          :  # basis functions                  92          :
          :  # atomic orbitals                  92          :
          :  # shells                           54          :
          :  # electrons                        93          :
          :  max. iterations                   250          :
          :  Hamiltonian                  GFN2-xTB          :
          :  restarted?                       true          :
          :  GBSA solvation                  false          :
          :  PC potential                    false          :
          :  electronic temp.          300.0000000     K    :
          :  accuracy                    0.2000000          :
          :  -> integral cutoff          0.3198970E+02      :
          :  -> integral neglect         0.2000000E-08      :
          :  -> SCF convergence          0.2000000E-06 Eh   :
          :  -> wf. convergence          0.2000000E-04 e    :
          :  Broyden damping             0.4000000          :
          :  net charge                          1          :
          :  unpaired electrons                  2          :
          ...................................................

 iter      E             dE          RMSdq      gap      omega  full diag
   1    -50.8746682 -0.508747E+02  0.701E-01    2.61       0.0  T
   2    -50.7881061  0.865621E-01  0.119E+00    2.52       1.0  T
   3    -50.8487554 -0.606493E-01  0.755E-01    2.41       1.0  T
   4    -50.8582196 -0.946426E-02  0.618E-01    2.58       1.0  T
   5    -50.8576485  0.571084E-03  0.539E-01    2.52       1.0  T
   6    -50.8621396 -0.449107E-02  0.478E-01    2.56       1.0  T
   7    -50.8645543 -0.241470E-02  0.430E-01    2.57       1.0  T
   8    -50.8688785 -0.432421E-02  0.333E-01    2.59       1.0  T
   9    -50.8720295 -0.315101E-02  0.235E-01    2.61       1.0  T
  10    -50.8731689 -0.113940E-02  0.194E-01    2.59       1.0  T
  11    -50.8752030 -0.203411E-02  0.657E-02    2.60       1.0  T
  12    -50.8754316 -0.228534E-03  0.256E-02    2.60       1.0  T
  13    -50.8754719 -0.402896E-04  0.143E-03    2.60      11.8  T
  14    -50.8754703  0.156511E-05  0.528E-03    2.60       3.2  T
  15    -50.8754713 -0.106022E-05  0.320E-03    2.60       5.3  T
  16    -50.8754720 -0.626581E-06  0.332E-04    2.60      50.9  T
  17    -50.8754720  0.105305E-07  0.528E-04    2.60      32.0  T
  18    -50.8754720 -0.169303E-07  0.647E-05    2.60     261.2  T
  19    -50.8754720  0.649109E-09  0.121E-04    2.60     140.0  T

   *** convergence criteria satisfied after 19 iterations ***

         #    Occupation            Energy/Eh            Energy/eV
      -------------------------------------------------------------
         1        2.0000           -0.8144278             -22.1617
       ...           ...                  ...                  ...
        41        2.0000           -0.5584155             -15.1953
        42        2.0000           -0.5548414             -15.0980
        43        2.0000           -0.5462372             -14.8639
        44        2.0000           -0.5385359             -14.6543
        45        2.0000           -0.5255877             -14.3020
        46        1.7220           -0.5074778             -13.8092
        47        1.2780           -0.5056644             -13.7598 (HOMO)
        48                         -0.4100393             -11.1577 (LUMO)
        49                         -0.3807941             -10.3619
        50                         -0.3563333              -9.6963
        51                         -0.3555702              -9.6756
        52                         -0.3376493              -9.1879
       ...                                ...                  ...
        92                          0.5363585              14.5951
      -------------------------------------------------------------
                  HL-Gap            0.0956251 Eh            2.6021 eV
             Fermi-level           -0.4822115 Eh          -13.1216 eV
 
 transition dipole moment (au) for excitation:          46          47
     X       Y       Z   
   0.1931  -0.0450  -0.0217  total (au/Debye):    0.199   0.507
 dE (eV)             :    0.049
 oscillator strength :  0.68027E-04

 SCC (total)                   0 d,  0 h,  0 min,  0.024 sec
 SCC setup                      ...        0 min,  0.000 sec (  0.499%)
 Dispersion                     ...        0 min,  0.000 sec (  0.766%)
 classical contributions        ...        0 min,  0.000 sec (  0.050%)
 integral evaluation            ...        0 min,  0.001 sec (  3.233%)
 iterations                     ...        0 min,  0.018 sec ( 75.193%)
 molecular gradient             ...        0 min,  0.002 sec (  8.528%)
 printout                       ...        0 min,  0.003 sec ( 11.684%)

[...]
  H     1.871717   -3.318078    1.297064
  H     0.273080   -3.498381    0.573256
  H     1.714189   -3.514540   -0.445977
  H    -0.937998   -1.526287    0.530558
  H    -3.624615    1.906374    1.357905
  H    -5.877169    1.012857    0.944707
  H    -6.190837   -0.891563   -0.597599
  H    -4.246451   -1.862861   -1.767102
  H    -1.996890   -0.959948   -1.391442
  H     3.776608   -2.411236    0.174661
  H     5.577478    1.214549   -0.244060
  H     3.429751    2.437087   -0.205225

----------------------------
CARTESIAN COORDINATES (A.U.)
----------------------------
  NO LB    ZA    FRAG    MASS        X           Y           Z
   0 C   6.0000    0    12.011    1.547621    5.152121   -0.434305
   1 C   6.0000    0    12.011    1.807903    2.371559   -0.016260
   2 C   6.0000    0    12.011    4.215165    1.188760   -0.044476
   3 C   6.0000    0    12.011    4.409487   -1.486148    0.193900
   4 C   6.0000    0    12.011    2.195800   -2.993606    0.515681
   5 C   6.0000    0    12.011    2.378289   -5.788320    0.820364
   6 C   6.0000    0    12.011   -0.088959   -1.799143    0.618837
   7 C   6.0000    0    12.011   -0.330270    0.849569    0.364550
   8 N   7.0000    0    14.007   -2.662093    1.964195    0.578438
   9 C   6.0000    0    12.011   -5.001674    0.937945    0.110596
  10 C   6.0000    0    12.011   -7.115484    2.036302    1.284462
  11 C   6.0000    0    12.011   -9.497085    1.083203    0.850218
  12 C   6.0000    0    12.011   -9.830785   -0.946752   -0.787358
  13 C   6.0000    0    12.011   -7.757817   -1.993109   -2.015722
  14 C   6.0000    0    12.011   -5.359942   -1.069399   -1.587903
  15 H   1.0000    0     1.008   -2.678995    3.754254    1.258914
  16 C   6.0000    0    12.011    6.856179   -2.542126    0.156816
  17 N   7.0000    0    14.007    8.882602   -1.183527   -0.113322
  18 C   6.0000    0    12.011    8.759561    1.314464   -0.274401
  19 C   6.0000    0    12.011    6.490987    2.575624   -0.248331
  20 H   1.0000    0     1.008   -0.278769    5.633464   -1.243461
  21 H   1.0000    0     1.008    1.774352    6.177018    1.342471
  22 H   1.0000    0     1.008    2.985107    5.834508   -1.731739
  23 H   1.0000    0     1.008    3.537033   -6.270258    2.451096
  24 H   1.0000    0     1.008    0.516047   -6.610982    1.083297
  25 H   1.0000    0     1.008    3.239347   -6.641518   -0.842774
  26 H   1.0000    0     1.008   -1.772559   -2.884264    1.002610
  27 H   1.0000    0     1.008   -6.849530    3.602525    2.566068
  28 H   1.0000    0     1.008  -11.106240    1.914022    1.785237
  29 H   1.0000    0     1.008  -11.698986   -1.684810   -1.129298
  30 H   1.0000    0     1.008   -8.024629   -3.520297   -3.339339
  31 H   1.0000    0     1.008   -3.773574   -1.814038   -2.629444
  32 H   1.0000    0     1.008    7.136754   -4.556576    0.330062
  33 H   1.0000    0     1.008   10.539905    2.295165   -0.461207
  34 H   1.0000    0     1.008    6.481290    4.605426   -0.387819

      -----------------------------------------------------------      
     |                   =====================                   |     
     |                           x T B                           |     
     |                   =====================                   |     
     |                         S. Grimme                         |     
     |          Mulliken Center for Theoretical Chemistry        |     
     |                    University of Bonn                     |     
      -----------------------------------------------------------      

   * xtb version 6.7.1 (edcfbbe) compiled by 'albert@albert-system' on 2024-07-22

   xtb is free software: you can redistribute it and/or modify it under
   the terms of the GNU Lesser General Public License as published by
   the Free Software Foundation, either version 3 of the License, or
   (at your option) any later version.
   
   xtb is distributed in the hope that it will be useful,
   but WITHOUT ANY WARRANTY; without even the implied warranty of
   MERCHANTABILITY or FITNESS FOR A PARTICULAR PURPOSE.  See the
   GNU Lesser General Public License for more details.
   
   Cite this work as:
   * C. Bannwarth, E. Caldeweyher, S. Ehlert, A. Hansen, P. Pracht,
     J. Seibert, S. Spicher, S. Grimme, WIREs Comput. Mol. Sci., 2020, 11,
     e01493. DOI: 10.1002/wcms.1493
   
   for GFN2-xTB:
   * C. Bannwarth, S. Ehlert and S. Grimme., J. Chem. Theory Comput., 2019,
     15, 1652-1671. DOI: 10.1021/acs.jctc.8b01176
   for GFN1-xTB:
   * S. Grimme, C. Bannwarth, P. Shushkov, J. Chem. Theory Comput., 2017,
     13, 1989-2009. DOI: 10.1021/acs.jctc.7b00118
   for GFN0-xTB:
   * P. Pracht, E. Caldeweyher, S. Ehlert, S. Grimme, ChemRxiv, 2019, preprint.
     DOI: 10.26434/chemrxiv.8326202.v1
   for GFN-FF:
   * S. Spicher and S. Grimme, Angew. Chem. Int. Ed., 2020, 59, 15665-15673.
     DOI: 10.1002/anie.202004239
   
   for ALPB and GBSA implicit solvation:
   * S. Ehlert, M. Stahn, S. Spicher, S. Grimme, J. Chem. Theory Comput.,
     2021, 17, 4250-4261. DOI: 10.1021/acs.jctc.1c00471
   
   for ddCOSMO and CPCM-X implicit solvation:
   * M. Stahn, S. Ehlert, S. Grimme, J. Phys. Chem. A,
     2023, XX, XXXX-XXXX. DOI: 10.1021/acs.jpca.3c04382
   
   for DFT-D4:
   * E. Caldeweyher, C. Bannwarth and S. Grimme, J. Chem. Phys., 2017,
     147, 034112. DOI: 10.1063/1.4993215
   * E. Caldeweyher, S. Ehlert, A. Hansen, H. Neugebauer, S. Spicher,
     C. Bannwarth and S. Grimme, J. Chem. Phys., 2019, 150, 154122.
     DOI: 10.1063/1.5090222
   * E. Caldeweyher, J.-M. Mewes, S. Ehlert and S. Grimme, Phys. Chem. Chem. Phys.
     2020, 22, 8499-8512. DOI: 10.1039/D0CP00502A
   
   for sTDA-xTB:
   * S. Grimme and C. Bannwarth, J. Chem. Phys., 2016, 145, 054103.
     DOI: 10.1063/1.4959605
   
   in the mass-spec context:
   * V. Asgeirsson, C. Bauer and S. Grimme, Chem. Sci., 2017, 8, 4879.
     DOI: 10.1039/c7sc00601b
   * J. Koopman and S. Grimme, ACS Omega 2019, 4, 12, 15120-15133.
     DOI: 10.1021/acsomega.9b02011
   
   for metadynamics refer to:
   * S. Grimme, J. Chem. Theory Comput., 2019, 155, 2847-2862
     DOI: 10.1021/acs.jctc.9b00143
   
   for SPH calculations refer to:
   * S. Spicher and S. Grimme, J. Chem. Theory Comput., 2021, 17, 1701-1714
     DOI: 10.1021/acs.jctc.0c01306
   
   for ONIOM refer to:
   * C. Plett, A. Katbashev, S. Ehlert, S. Grimme, M. Bursch,
     Phys. Chem. Chem. Phys., 2023, 25, 17860-17868. DOI: 10.1039/D3CP02178E
   
   for DIPRO refer to:
   * J. Kohn, N. Gildemeister, S. Grimme, D. Fazzi, A. Hansen,
     J. Chem. Phys., 2023, just accepted.
   
   for PTB refer to:
   * S. Grimme, M. Mueller, A. Hansen, J. Chem. Phys., 2023, 158, 124111.
     DOI: 10.1063/5.0137838
   
   with help from (in alphabetical order)
   P. Atkinson, C. Bannwarth, F. Bohle, G. Brandenburg, E. Caldeweyher
   M. Checinski, S. Dohm, S. Ehlert, S. Ehrlich, I. Gerasimov, C. Hölzer
   A. Katbashev, J. Kohn, J. Koopman, C. Lavigne, S. Lehtola, F. März, M. Müller,
   F. Musil, H. Neugebauer, J. Pisarek, C. Plett, P. Pracht, F. Pultar,
   J. Seibert, P. Shushkov, S. Spicher, M. Stahn, M. Steiner, T. Strunk,
   J. Stückrath, T. Rose, and J. Unsleber
   
 * started run on 2025/05/14 at 11:33:46.573     
   ID    Z sym.   atoms
    1    6 C      1-8, 10-15, 17, 19, 20
    2    7 N      9, 18
    3    1 H      16, 21-35

           -------------------------------------------------
          |                Calculation Setup                |
           -------------------------------------------------

          program call               : /home/mchrnwsk/orca_6_0_1_linux_x86-64_shared_openmpi416/otool_xtb /home/mchrnwsk/qmmm/runs/expanding_reaction_scope/ellipticine/optimise/sub+H2./0_SUB_opt_unrest/SUB_opt_unrest_XTB.xyz --grad -c 1 -u 2 -P 8 --namespace /home/mchrnwsk/qmmm/runs/expanding_reaction_scope/ellipticine/optimise/sub+H2./0_SUB_opt_unrest/SUB_opt_unrest --input /home/mchrnwsk/qmmm/runs/expanding_reaction_scope/ellipticine/optimise/sub+H2./0_SUB_opt_unrest/SUB_opt_unrest_XTB.input.tmp --acc 0.200000
          calculation namespace      : /home/mchrnwsk/qmmm/runs/expanding_reaction_scope/ellipticine/optimise/sub+H2./0_SUB_opt_unrest/SUB_opt_unrest
          coordinate file            : /home/mchrnwsk/qmmm/runs/expanding_reaction_scope/ellipticine/optimise/sub+H2./0_SUB_opt_unrest/SUB_opt_unrest_XTB.xyz
          omp threads                :                     8


           -------------------------------------------------
          |                 G F N 2 - x T B                 |
           -------------------------------------------------

        Reference                      10.1021/acs.jctc.8b01176
      * Hamiltonian:
        H0-scaling (s, p, d)           1.850000    2.230000    2.230000
        zeta-weighting                 0.500000
      * Dispersion:
        s8                             2.700000
        a1                             0.520000
        a2                             5.000000
        s9                             5.000000
      * Repulsion:
        kExp                           1.500000    1.000000
        rExp                           1.000000
      * Coulomb:
        alpha                          2.000000
        third order                    shell-resolved
        anisotropic                    true
        a3                             3.000000
        a5                             4.000000
        cn-shift                       1.200000
        cn-exp                         4.000000
        max-rad                        5.000000

q/qsh data taken from xtbrestart
CAMM data taken from xtbrestart

          ...................................................
          :                      SETUP                      :
          :.................................................:
          :  # basis functions                  92          :
          :  # atomic orbitals                  92          :
          :  # shells                           54          :
          :  # electrons                        93          :
          :  max. iterations                   250          :
          :  Hamiltonian                  GFN2-xTB          :
          :  restarted?                       true          :
          :  GBSA solvation                  false          :
          :  PC potential                    false          :
          :  electronic temp.          300.0000000     K    :
          :  accuracy                    0.2000000          :
          :  -> integral cutoff          0.3198970E+02      :
          :  -> integral neglect         0.2000000E-08      :
          :  -> SCF convergence          0.2000000E-06 Eh   :
          :  -> wf. convergence          0.2000000E-04 e    :
          :  Broyden damping             0.4000000          :
          :  net charge                          1          :
          :  unpaired electrons                  2          :
          ...................................................

 iter      E             dE          RMSdq      gap      omega  full diag
   1    -50.8814970 -0.508815E+02  0.436E-03    2.56       0.0  T
   2    -50.8814943  0.267476E-05  0.663E-03    2.56       2.6  T
   3    -50.8814833  0.110521E-04  0.142E-02    2.56       1.2  T
   4    -50.8814968 -0.134736E-04  0.197E-03    2.56       8.6  T
   5    -50.8814970 -0.277475E-06  0.185E-04    2.56      91.2  T
   6    -50.8814970 -0.827221E-09  0.108E-04    2.56     156.8  T
   7    -50.8814970  0.404555E-09  0.115E-04    2.56     146.5  T

   *** convergence criteria satisfied after 7 iterations ***

         #    Occupation            Energy/Eh            Energy/eV
      -------------------------------------------------------------
         1        2.0000           -0.8191890             -22.2913
       ...           ...                  ...                  ...
        41        2.0000           -0.5586536             -15.2017
        42        2.0000           -0.5554870             -15.1156
        43        2.0000           -0.5510427             -14.9946
        44        2.0000           -0.5416261             -14.7384
        45        2.0000           -0.5230571             -14.2331
        46        1.8123           -0.5059971             -13.7689
        47        1.1877           -0.5032129             -13.6931 (HOMO)
        48                         -0.4091373             -11.1332 (LUMO)
        49                         -0.3808494             -10.3634
        50                         -0.3575690              -9.7299
        51                         -0.3549190              -9.6578
        52                         -0.3355627              -9.1311
       ...                                ...                  ...
        92                          0.5347191              14.5504
      -------------------------------------------------------------
                  HL-Gap            0.0940756 Eh            2.5599 eV
             Fermi-level           -0.4803900 Eh          -13.0721 eV
 
 transition dipole moment (au) for excitation:          46          47
     X       Y       Z   
   3.2657  -0.6000  -0.0121  total (au/Debye):    3.320   8.440
 dE (eV)             :    0.076
 oscillator strength :  0.28940E-01

 SCC (total)                   0 d,  0 h,  0 min,  0.021 sec
 SCC setup                      ...        0 min,  0.001 sec (  2.985%)
 Dispersion                     ...        0 min,  0.001 sec (  5.053%)
 classical contributions        ...        0 min,  0.000 sec (  0.528%)
 integral evaluation            ...        0 min,  0.001 sec (  6.794%)
 iterations                     ...        0 min,  0.011 sec ( 53.474%)
 molecular gradient             ...        0 min,  0.003 sec ( 12.511%)
 printout                       ...        0 min,  0.004 sec ( 18.595%)

         :::::::::::::::::::::::::::::::::::::::::::::::::::::
         ::                     SUMMARY                     ::
         :::::::::::::::::::::::::::::::::::::::::::::::::::::
         :: total energy             -49.982750140802 Eh    ::
         :: gradient norm              0.000183469702 Eh/a0 ::
         :: HOMO-LUMO gap              2.559928215578 eV    ::
         ::.................................................::
         :: SCC energy               -50.881491062981 Eh    ::
         :: -> isotropic ES            0.071554976721 Eh    ::
         :: -> anisotropic ES         -0.012401745223 Eh    ::
         :: -> anisotropic XC          0.034748656312 Eh    ::
         :: -> dispersion             -0.036324588034 Eh    ::
         :: repulsion energy           0.898740922179 Eh    ::
         :: add. restraining           0.000000000000 Eh    ::
         :: total charge               1.000000000000 e     ::
         :::::::::::::::::::::::::::::::::::::::::::::::::::::


Property printout bound to 'properties.out'

           -------------------------------------------------
          | TOTAL ENERGY              -49.982750140802 Eh   |
          | GRADIENT NORM               0.000183469702 Eh/α |
          | HOMO-LUMO GAP               2.559928215578 eV   |
           -------------------------------------------------

------------------------------------------------------------------------
 * finished run on 2025/05/14 at 11:33:46.604     
------------------------------------------------------------------------
 total:
 * wall-time:     0 d,  0 h,  0 min,  0.031 sec
 *  cpu-time:     0 d,  0 h,  0 min,  0.227 sec
 * ratio c/w:     7.288 speedup
 SCF:
 * wall-time:     0 d,  0 h,  0 min,  0.021 sec
 *  cpu-time:     0 d,  0 h,  0 min,  0.158 sec
 * ratio c/w:     7.566 speedup


-------------------------   --------------------
FINAL SINGLE POINT ENERGY       -49.982750140800
-------------------------   --------------------


-------------
DIPOLE MOMENT
-------------
                                X             Y             Z
Total Dipole Moment    :     -0.82900       0.77600       0.20800
                        -----------------------------------------
Magnitude (a.u.)       :      1.15442
Magnitude (Debye)      :      2.93430

                                *** OPTIMIZATION RUN DONE ***


--------------------------------
SUGGESTED CITATIONS FOR THIS RUN
--------------------------------

Below you find a list of papers that are relevant to this ORCA run
We neither can nor want to force you to cite these papers, but we appreciate if you do
You receive ORCA, which is the product of decades of hard work by many enthusiastic individuals, for free
The only thing we kindly ask in return is that you cite our papers,
We deeply appreciate it, if you show your appreciation for ORCA by not just citing the generic ORCA reference.

Please note that relegating all ORCA citations to the supporting information does *not* help us.
SI sections are not indexed - citations you put there will not count into any citation statistics
But we need these citations in order to attract the funding resources that allow us to do what we are doing

Therefore, if you are a happy ORCA user, please consider citing a few of the papers listed below in the main body of your paper

In addition to the list printed below, the program has created the file /home/mchrnwsk/qmmm/runs/expanding_reaction_scope/ellipticine/optimise/sub+H2./0_SUB_opt_unrest/SUB_opt_unrest.bibtex that contains the list in bibtex format
You can import this file easily into all common literature databanks and citation aid programs


List of essential papers. We consider these as the minimum necessary citations

  1. Bannwarth,C.; Ehlert,S.; Grimme,S.
     GFN2-xTB—An Accurate and Broadly Parametrized Self-Consistent Tight-Binding Quantum Chemical Method with Multipole Electrostatics and Density-Dependent Dispersion Contributions
     J. Chem. Theory Comput., 2019 15(3)1652-1671
     doi.org/10.1021/acs.jctc.8b01176
  2. Neese,F.
     Software update: the ORCA program system, version 5.0
     WIRES Comput. Molec. Sci., 2022 12(1)e1606
     doi.org/10.1002/wcms.1606

List of papers to cite with high priority. The work reported in these papers was absolutely
necessary for this run to complete.
Our perspective: the developers of density functionals and basis sets usually get cited in chemistry papers
Good! But without the algorithms to do something with them, the functionals or basis sets would not do anything.
Hence, in our opinion, the algorithm design and method developments papers are equally worthy of getting cited

  1. Bannwarth,C.; Caldeweyher,E.; Ehlert,S.; Hansen,A.; Pracht,P.; Seibert,J.; Spicher,S.; Grimme,S.
     Extended tight-binding quantum chemistry methods
     WIRES Comput. Molec. Sci., 2020 11(2)e1493
     doi.org/10.1002/wcms.1493

List of suggested additional citations. These are papers that are important in the 'surrounding' of 
of this run, or papers that preceded the highly important papers. If you like your results we are grateful for a citation.

  1. Neese,F.
     The ORCA program system
     WIRES Comput. Molec. Sci., 2012 2(1)73-78
     doi.org/10.1002/wcms.81
  2. Neese,F.
     Software update: the ORCA program system, version 4.0
     WIRES Comput. Molec. Sci., 2018 8(1)1-6
     doi.org/10.1002/wcms.1327
  3. Neese,F.; Wennmohs,F.; Becker,U.; Riplinger,C.
     The ORCA quantum chemistry program package
     J. Chem. Phys., 2020 152 Art. No. L224108
     doi.org/10.1063/5.0004608

List of optional additional citations

  1. Neese,F.
     Approximate second-order SCF convergence for spin unrestricted wavefunctions
     Chem. Phys. Lett., 2000 325(1-3)93-98
     doi.org/10.1016/s0009-2614(00)00662-x

Timings for individual modules:

Sum of individual times          ...        1.016 sec (=   0.017 min)
Geometry relaxation              ...        0.205 sec (=   0.003 min)  20.1 %
XTB module                       ...        0.811 sec (=   0.014 min)  79.9 %
                             ****ORCA TERMINATED NORMALLY****
TOTAL RUN TIME: 0 days 0 hours 0 minutes 1 seconds 432 msec
