15
	Energy:       3.2422895
N          0.46563        1.70050       -0.10446
C          0.44869        0.27996        0.29410
C          1.83540       -0.29374        0.02048
C         -0.62946       -0.53405       -0.42472
C         -2.00984       -0.18035        0.04435
O         -2.32027        0.70460        0.82453
O         -2.95370       -0.94817       -0.53301
H          0.30672        0.23059        1.38022
H          0.45237        1.77829       -1.12244
H         -0.40749        2.13240        0.21529
H         -0.57325       -0.38241       -1.50900
H         -0.48435       -1.60231       -0.22187
H         -3.80236       -0.61638       -0.17126
O          2.04702       -1.36187       -0.54799
H          2.67647        0.29845        0.42311
