16
	Energy:       6.0270445
N         -0.43485        1.72235        0.28064
C         -0.39694        0.35420       -0.26545
C         -1.76802       -0.28564       -0.06069
O         -2.01123       -1.17345        0.75224
C          0.69069       -0.49069        0.40059
C          2.06532       -0.24359       -0.17513
N          3.07733       -0.82319        0.53648
O          2.30030        0.36598       -1.21164
H         -0.23716        0.40181       -1.34859
H         -1.11279        2.29188       -0.22303
H         -0.71655        1.70639        1.26067
H          0.71033       -0.32223        1.48459
H          0.48519       -1.55840        0.24590
H          2.91742       -1.41903        1.33667
H          4.02053       -0.71507        0.18732
H         -2.57835        0.13887       -0.67886
