13
	Energy:      49.8467215
N          0.00890        1.67358       -0.31763
C         -0.12111        0.20767       -0.41717
C         -1.53188       -0.18745        0.01033
O         -1.80044       -0.88814        0.98103
C          0.91240       -0.54553        0.43726
S          2.62408       -0.30703       -0.14626
H         -0.02078       -0.08890       -1.46792
H         -0.71436        2.14698       -0.85477
H         -0.08217        1.97095        0.65382
H          0.85976       -0.22458        1.48417
H          0.70886       -1.62209        0.42114
H          3.21576       -0.98970        0.84449
H         -2.34047        0.20898       -0.62912
