18
	Energy:      23.6802648
N          1.24877        1.94005       -0.05236
C          1.14623        0.55289        0.46742
H          1.14455        0.60931        1.56174
C         -0.11133       -0.15374       -0.04818
C         -1.41185        0.49348        0.42386
C         -2.67645       -0.23509       -0.03940
O         -2.50730       -1.24242       -0.78081
O         -3.75355        0.27047        0.38883
C          2.38996       -0.24234        0.04714
O          3.23090        0.09843       -0.77457
O          2.54245       -1.39833        0.72430
H          2.20968        2.25726        0.07219
H          1.10837        1.90082       -1.06324
H         -0.09238       -0.18975       -1.14619
H         -0.09503       -1.20113        0.28164
H         -1.42647        0.52664        1.52016
H         -1.47520        1.52587        0.06074
H          3.34302       -1.79682        0.32872
