20
	Energy:      30.8906241
N          0.93285        1.37664        1.09428
C          1.09022        0.04343        0.45536
H          0.91415       -0.71053        1.23134
C          0.16337       -0.17345       -0.75035
C         -1.28504       -0.12450       -0.40730
C         -2.27085        0.69299       -0.91843
N         -3.41569        0.32897       -0.26518
C         -3.09211       -0.67517        0.60099
N         -1.81518       -0.97242        0.53564
C          2.52500       -0.10613       -0.04673
O          3.22935        0.77627       -0.51628
O          2.97479       -1.37669        0.00038
H          1.16693        2.09583        0.40912
H         -0.05301        1.50004        1.32714
H          0.38173        0.57071       -1.52828
H          0.37320       -1.15125       -1.20385
H         -2.25713        1.47305       -1.66654
H         -4.33651        0.72483       -0.39572
H         -3.82146       -1.14658        1.24626
H          3.89199       -1.31274       -0.33835
