19
	Energy:      44.7338481
N          0.99229        1.48329        0.89150
C          1.06484        0.08146        0.41898
C          2.50925       -0.22317        0.02086
O          2.85180       -0.86171       -0.96606
C          0.12287       -0.19389       -0.76302
C         -1.32016       -0.14032       -0.39573
C         -2.30212        0.71003       -0.85875
N         -3.44395        0.32575       -0.21380
C         -3.12610       -0.72861        0.59299
N         -1.85484       -1.04195        0.49745
H          0.82470       -0.57649        1.26223
H          0.32724        0.51409       -1.57745
H          0.32131       -1.19164       -1.17576
H         -2.28365        1.52790       -1.56460
H         -4.35985        0.74036       -0.31367
H         -3.85637       -1.22327        1.21888
H          3.27483        0.13227        0.73441
H          1.29385        2.12312        0.15918
H          1.59215        1.61973        1.70232
