25
	Energy:      31.2512206
N          1.49851        1.83252        0.28388
C          1.37631        0.37820        0.47763
H          1.36014        0.18824        1.55687
C          0.11983       -0.20630       -0.18755
C         -1.19053        0.29001        0.43394
C         -2.40486       -0.41086       -0.18254
C         -3.70326        0.14327        0.38925
N         -4.85845       -0.58080       -0.19771
C          2.60923       -0.31707       -0.10891
O          3.23561        0.03534       -1.09988
O          2.93000       -1.45235        0.54089
H          1.79260        2.02276       -0.67758
H          0.62512        2.32078        0.44348
H          0.12588        0.02195       -1.26190
H          0.15481       -1.30137       -0.11266
H         -1.17635        0.10869        1.51536
H         -1.29106        1.37096        0.28622
H         -2.39412       -0.26944       -1.27077
H         -2.34218       -1.49011        0.00266
H         -3.76583        0.01904        1.47465
H         -3.82941        1.20058        0.13719
H         -4.61937       -1.07340       -1.06891
H         -5.62761        0.06594       -0.41944
H          3.74242       -1.76436        0.08624
H         -5.23341       -1.28145        0.45605
