24
	Energy:      37.0484625
N          1.52069        1.77713        0.18389
C          1.36344        0.34375        0.44851
C          2.59780       -0.37747       -0.09377
O          2.55126       -1.31755       -0.88376
C          0.07949       -0.23183       -0.17034
C         -1.21434        0.33573        0.42304
C         -2.43565       -0.39177       -0.14916
C         -3.73714        0.21156        0.35780
N         -4.87618       -0.56577       -0.18843
H          1.35830        0.18087        1.53209
H          1.50680        1.95464       -0.82183
H          0.75654        2.31256        0.58841
H          0.08285       -0.06558       -1.25628
H          0.07882       -1.32128       -0.03166
H         -1.20131        0.22483        1.51393
H         -1.29188        1.40639        0.20298
H         -2.41144       -0.34088       -1.24504
H         -2.38709       -1.45385        0.12218
H         -3.81704        0.17018        1.44793
H         -3.86460        1.24333        0.01725
H         -4.82887       -0.64704       -1.21324
H         -5.77487       -0.12045        0.04050
H         -4.90211       -1.52013        0.19566
H          3.56528       -0.02105        0.30199
