23
	Energy:      52.8052806
N         -1.17859        1.53306       -0.87704
C         -1.32419        0.11977       -0.43931
H         -1.08952       -0.51798       -1.29964
C         -0.41985       -0.21583        0.75904
C          1.05495       -0.17799        0.43005
C          1.77799        1.01575        0.55934
C          3.12986        1.06742        0.21893
C          3.77359       -0.07447       -0.25217
C          3.06616       -1.26870       -0.38081
C          1.71223       -1.32156       -0.04290
C         -2.78153       -0.13420       -0.04552
O         -3.62496        0.71762        0.19570
O         -3.10162       -1.44131        0.00818
H         -1.80777        1.69209       -1.66496
H         -1.53954        2.13461       -0.13360
H         -0.62554        0.46487        1.59683
H         -0.66360       -1.21484        1.14600
H          1.28309        1.91979        0.90694
H          3.67535        2.00258        0.31127
H          4.82431       -0.03122       -0.52525
H          3.56823       -2.15807       -0.75204
H          1.17381       -2.25930       -0.15742
H         -4.05394       -1.44286        0.24350
