22
	Energy:      66.5476619
N         -1.30801        1.52260       -0.87385
C         -1.29236        0.10481       -0.46655
C         -2.70645       -0.32808       -0.10515
O         -3.19926       -1.39948       -0.44352
C         -0.38927       -0.15343        0.75010
C          1.08370       -0.13069        0.41791
C          1.82439        1.05229        0.53682
C          3.18291        1.07180        0.21727
C          3.81245       -0.08888       -0.22802
C          3.08377       -1.26970       -0.35642
C          1.72522       -1.29143       -0.03673
H         -0.96836       -0.49827       -1.32274
H         -1.91837        1.64570       -1.68142
H         -1.65406        2.12039       -0.12675
H         -0.59996        0.57144        1.54859
H         -0.62752       -1.13080        1.19285
H          1.34417        1.96943        0.86933
H          3.74816        1.99521        0.31016
H          4.86930       -0.07169       -0.47996
H          3.57277       -2.17393       -0.70905
H          1.17024       -2.22054       -0.14721
H         -3.26433        0.35782        0.55669
