13
	Energy:      54.7510209
N          0.52557        1.62986       -0.33430
C          0.29651        0.17228       -0.40899
C         -1.13245       -0.12950        0.02085
O         -1.44553       -0.72287        1.04853
C          1.29277       -0.61719        0.45561
O          2.58888       -0.61161       -0.14183
H          0.40067       -0.13816       -1.45453
H         -0.15890        2.13599       -0.89099
H          0.43819        1.94727        0.63039
H          1.36620       -0.19248        1.46362
H          0.98213       -1.66332        0.55204
H          3.20422       -0.97929        0.51485
H         -1.91355        0.25061       -0.66097
