16
	Energy:      55.9698975
N         -0.23235        1.74011        0.09689
C         -0.09231        0.35212        0.59593
C          1.31970       -0.13917        0.28844
O          1.66812       -1.31677        0.33626
C         -1.14693       -0.60751        0.00121
O         -1.24181       -0.41042       -1.41829
C         -2.53035       -0.39848        0.61363
H         -0.16516        0.37689        1.68945
H         -0.84982       -1.64983        0.16063
H         -0.20627        1.71291       -0.92477
H         -1.15253        2.09820        0.34855
H         -1.83074        0.34388       -1.58477
H         -2.93607        0.58870        0.36748
H         -3.23565       -1.13203        0.20769
H         -2.50554       -0.50713        1.70196
H          2.07355        0.64922        0.11686
