24
	Energy:      43.0666897
N         -1.58858        1.54188       -0.86326
C         -1.75395        0.12733       -0.43758
H         -1.49314       -0.50819       -1.29202
C         -0.88883       -0.21149        0.78717
C          0.59415       -0.19781        0.49412
C          1.34279        0.97782        0.65786
C          2.70937        0.99558        0.37054
C          3.32319       -0.16593       -0.08415
C          2.59446       -1.33061       -0.28139
C          1.23220       -1.35116        0.01628
O          4.66223       -0.20642       -0.33475
C         -3.22441       -0.12428       -0.09215
O         -4.07106        0.72692        0.12701
O         -3.54763       -1.43209       -0.05609
H         -2.17651        1.70088       -1.68253
H         -1.99038        2.14039       -0.13839
H         -1.10728        0.47638        1.61574
H         -1.15503       -1.20519        1.17350
H          0.85644        1.89138        0.99371
H          3.26769        1.91949        0.48343
H          3.08993       -2.22237       -0.65273
H          0.67430       -2.27289       -0.12798
H          5.09294        0.36385        0.32360
H         -4.50740       -1.43398        0.14656
