
                                 *****************
                                 * O   R   C   A *
                                 *****************

                                            #,                                       
                                            ###                                      
                                            ####                                     
                                            #####                                    
                                            ######                                   
                                           ########,                                 
                                     ,,################,,,,,                         
                               ,,#################################,,                 
                          ,,##########################################,,             
                       ,#########################################, ''#####,          
                    ,#############################################,,   '####,        
                  ,##################################################,,,,####,       
                ,###########''''           ''''###############################       
              ,#####''   ,,,,##########,,,,          '''####'''          '####       
            ,##' ,,,,###########################,,,                        '##       
           ' ,,###''''                  '''############,,,                           
         ,,##''                                '''############,,,,        ,,,,,,###''
      ,#''                                            '''#######################'''  
     '                                                          ''''####''''         
             ,#######,   #######,   ,#######,      ##                                
            ,#'     '#,  ##    ##  ,#'     '#,    #''#        ,####,    ,#,          
            ##       ##  ##   ,#'  ##            #'  '#       #'       ,# #          
            ##       ##  #######   ##           ,######,      #####,      #          
            '#,     ,#'  ##    ##  '#,     ,#' ,#      #,     #,   #      #          
             '#######'   ##     ##  '#######'  #'      '#     '####' #    #          



                #########################################################
                #                        -***-                          #
                #          Department of theory and spectroscopy        #
                #                                                       #
                #                      Frank Neese                      #
                #                                                       #
                #     Directorship, Architecture, Infrastructure        #
                #                    SHARK, DRIVERS                     #
                #        Core code/Algorithms in most modules           #
                #                                                       #
                #        Max Planck Institute fuer Kohlenforschung      #
                #                Kaiser Wilhelm Platz 1                 #
                #                 D-45470 Muelheim/Ruhr                 #
                #                      Germany                          #
                #                                                       #
                #                  All rights reserved                  #
                #                        -***-                          #
                #########################################################


                         Program Version 6.1.0  -  RELEASE   -
                                (GIT: $679e74b$)
                          ($2025-06-10 18:02:51 +0200$)


 With contributions from (in alphabetic order):
[Max-Planck-Institut fuer Kohlenforschung]                               
  Daniel Aravena         : Magnetic Suceptibility                        
  Michael Atanasov       : Ab Initio Ligand Field Theory (pilot matlab implementation)
  Alexander A. Auer      : GIAO ZORA, VPT2 properties, NMR spectrum      
  Ute Becker             : All parallelization in ORCA, NUMFREQ, NUMCALC 
  Giovanni Bistoni       : ED, misc. LED, open-shell LED, HFLD           
  Dmytro Bykov           : pre 5.0 version of the SCF Hessian            
  Marcos Casanova-Páez   : Triplet and SCS-CIS(D). UHF-(DLPNO)-IP/EA/STEOM-CCSD. UHF-CVS-IP/STEOM-CCSD   
  Vijay G. Chilkuri      : MRCI spin determinant printing, contributions to CSF-ICE 
  Pauline Colinet        : FMM embedding                                 
  Dipayan Datta          : RHF DLPNO-CCSD density                        
  Achintya Kumar Dutta   : EOM-CC, STEOM-CC                              
  Nicolas Foglia         : Exact transition moments, OPA infrastructure, MCD improvements    
  Dmitry Ganyushin       : Spin-Orbit,Spin-Spin,Magnetic field MRCI      
  Miquel Garcia-Rates    : C-PCM and meta-GGA Hessian, CCSD/C-PCM, Gaussian charge scheme 
  Tiago L. C. Gouveia    : GS-ROHF, GS-ROCIS                             
  Yang Guo               : DLPNO-NEVPT2, F12-NEVPT2, CIM, IAO-localization        
  Andreas Hansen         : Spin unrestricted coupled pair/coupled cluster methods 
  Ingolf Harden          : AUTO-CI MPn and infrastructure                
  Benjamin Helmich-Paris : MC-RPA, TRAH-(SCF,CASSCF), AVAS, COSX integrals, SCF dyn. polar., MC-PDFT, srDFT 
  Lee Huntington         : MR-EOM, pCC                                   
  Robert Izsak           : Overlap fitted RIJCOSX, COSX-SCS-MP3, EOM     
  Riya Kayal             : Wick's Theorem for AUTO-CI, AUTO-CI UHF-CCSDT 
  Emily Kempfer          : AUTO-CI RHF CISDT and CCSDT, approximate NEVPT4
  Christian Kollmar      : KDIIS, OOCD, Brueckner-CCSD(T), CCSD density, CASPT2, CASPT2-K, improved NEVPT2 
  Axel Koslowski         : Symmetry handling                             
  Simone Kossmann        : meta-GGA functionals, TD-DFT gradient, OOMP2, (MP2 Hessian; deprecated post 5.0) 
  Lucas Lang             : DCDCAS, Hyperfine gauge corrections, ICE-SOC+SSC
  Marvin Lechner         : AUTO-CI (C++ implementation), FIC-MRCC        
  Spencer Leger          : CASSCF response                               
  Dagmar Lenk            : GEPOL surface, SMD, ORCA-2-JSON               
  Dimitrios Liakos       : Extrapolation schemes; Compound Job, Property file
  Dimitrios Manganas     : Further ROCIS development; embedding schemes. LFT, Crystal Embedding 
  Dimitrios Pantazis     : SARC Basis sets                               
  Anastasios Papadopoulos: AUTO-CI, single reference methods and gradients 
  Taras Petrenko         : pre 6.0 DFT Hessian and TD-DFT gradient,  ECA, NRVS 
  Petra Pikulova         : Analytic Raman intensities                    
  Peter Pinski           : DLPNO-MP2, DLPNO-MP2 Gradient                 
  Shashank Vittal Rao    : ES-AILFT, MagRelax                            
  Christoph Reimann      : Effective Core Potentials                     
  Marius Retegan         : Local ZFS, SOC                                
  Christoph Riplinger    : Optimizer, TS searches, QM/MM, DLPNO-CCSD(T), (RO)-DLPNO pert. Triples 
  Michael Roemelt        : Original ROCIS implementation, recursive CI coupling coefficients
  Masaaki Saitow         : Open-shell DLPNO-CCSD energy and density      
  Barbara Sandhoefer     : DKH picture change effects                    
  Yorick L. A. Schmerwitz: GMF and freeze-and-release deltaSCF, NEB S-IDPP initial path                    
  Kantharuban Sivalingam : CASSCF convergence/infrastructure, NEVPT2, NEVPT3, NEVPT4(SD), FIC-MRCI and CEPA variants
  Bernardo de Souza      : ESD, SOC TD-DFT                               
  Georgi L. Stoychev     : AutoAux, RI-MP2 NMR, DLPNO-MP2 response, X2C  
  Van Anh Tran           : RI-MP2 g-tensors                              
  Willem Van den Heuvel  : Paramagnetic NMR                              
  Zikuan Wang            : NOTCH, Electric field optimization            
  Frank Wennmohs         : Technical directorship and infrastructure     
  Hang Xu                : AUTO-CI-Response properties                   
                                                                         
[FACCTs GmbH]                                                            
  Markus Bursch, Nicolas Foglia, Miquel Garcia-Rates, Ingolf Harden, Hagen Neugebauer, Anastasios Papadopoulos, 
  Christoph Riplinger, Bernardo de Souza, Georgi L. Stoychev                                                    
                                                                 
  APM, various basis sets, CI-OPT, improved COSX, DLPNO-Multilevel,           
  DOCKER, DRACO, updates on ESD, Fragmentator, GOAT, IRC, LR-CPCM, L-BFGS, MBIS, meta-GGA TD-DFT gradient, ML-optimized integration grids, 
  MM, NACMEs, nearIR, NEB, NEB-TS, NL-DFT gradient (VV10), 2- and 3-layer-ONIOM, interface openCOSMO-RS, QMMM,   
  Crystal-QMMM, RESP, rigid body optimization, SF, symmetry and pop. for TD-DFT, various functionals, SOLVATOR                                   
                                                                         
[Other institutions]                                                     
  V. Asgeirsson          : NEB                                           
  Christoph Bannwarth    : sTDA-DFT, sTD-DFT, PBEh-3c, B97-3c, D3        
  Giovanni Bistoni       : ETS/NOCV, ADLD/ADEX, COVALED                  
  Martin Brehm           : Molecular dynamics                            
  Ronald Cardenas        : ETS/NOCV                                      
  Martina Colucci        : COVALED                                       
  Sebastian Ehlert       : rSCAN, r2SCAN, r2SCAN-3c, D4, dhf basis sets  
  Marvin Friede          : D4 for Fr, Ra, Ac-Lr                          
  Lars Goerigk           : TD-DFT with DH, B97 family of functionals     
  Stefan Grimme          : VdW corrections, initial TS optimization, DFT functionals, gCP, sTDA/sTD-DF 
  Waldemar Hujo          : DFT-NL                                        
  H. Jonsson             : NEB                                           
  Holger Kruse           : gCP                                           
  Marcel Mueller         : wB97X-3c, vDZP basis set                      
  Hagen Neugebauer       : wr2SCAN, Native XTB                           
  Gianluca Regni         : ADLD/ADEX                                     
  Tobias Risthaus        : pre 6.0 range-separated hybrid DFT and stability analysis
  Lukas Wittmann         : regularized MP2, r2SCAN double-hybrids, wr2SCAN        
                                                                         
We gratefully acknowledge several colleagues who have allowed us to      
interface, adapt or use parts of their codes:                            
  Ed Valeev, F. Pavosevic, A. Kumar             : LibInt (2-el integral package), F12 methods 
  Garnet Chan, S. Sharma, J. Yang, R. Olivares  : DMRG                   
  Ulf Ekstrom                                   : XCFun DFT Library      
  Mihaly Kallay                                 : mrcc  (arbitrary order and MRCC methods)
  Frank Weinhold                                : gennbo (NPA and NBO analysis)           
  Simon Mueller                                 : openCOSMO-RS                            
  Christopher J. Cramer and Donald G. Truhlar   : smd solvation model                     
  S Lehtola, MJT Oliveira, MAL Marques          : LibXC Library                           
  Liviu Ungur et al                             : ANISO software                          


 Your calculation uses the libint2 library for the computation of 2-el integrals
 For citations please refer to: http://libint.valeyev.net

 Your ORCA version has been built with support for libXC version: 7.0.0
 For citations please refer to: https://libxc.gitlab.io

 This ORCA versions uses:
   CBLAS   interface :  Fast vector & matrix operations
   LAPACKE interface :  Fast linear algebra routines
   SCALAPACK package :  Parallel linear algebra routines
   Shared memory     :  Shared parallel matrices
   BLAS/LAPACK       :  OpenBLAS 0.3.29  USE64BITINT DYNAMIC_ARCH NO_AFFINITY SkylakeX SINGLE_THREADED
        Core in use  :  SkylakeX
   Copyright (c) 2011-2014, The OpenBLAS Project


  ***********************************
  * Starting time: Thu Nov 13 17:49:41 2025
  * Host name:     glutamate
  * Process ID:    574682
  * Working dir.:  /home/mchrnwsk/prometheozyme
  ***********************************

Your calculation utilizes the semiempirical GFN2-xTB method
Please cite in your paper:
Bannwarth, C.; Ehlert S.; Grimme, S. J. Chem. Theory Comput. 2019, 15, 1652.
   

================================================================================

================================================================================
                                        WARNINGS
                       Please study these warnings very carefully!
================================================================================


WARNING: Geometry Optimization
  ===> : Switching off AutoStart
         For restart on a previous wavefunction, please use MOREAD

WARNING: Found dipole moment calculation with XTB calculation
  ===> : Switching off dipole moment calculation


================================================================================
                                       INPUT FILE
================================================================================
NAME = /home/mchrnwsk/prometheozyme/ingredients/lmo-mandalate/optimised/adduct_left_p/opt.inp
|  1> !XTB2 OPT
|  2> !PAL16
|  3> * xyz -1 1 /home/mchrnwsk/prometheozyme/ingredients/lmo-mandalate/optimised/adduct_left_d/adduct_d.xyz
|  4> C        -1.78499999999999992        -1.89599999999999991        -0.19600000000000001
|  5> C        -1.57699999999999996        -1.80499999999999994        -2.58300000000000018
|  6> C        -1.99300000000000010        -3.26100000000000012        -0.26500000000000001
|  7> C        -1.78099999999999992        -3.17200000000000015        -2.64900000000000002
|  8> C        -1.99900000000000011        -3.90099999999999980        -1.49300000000000010
|  9> C        -1.59400000000000008        -1.15799999999999992        -1.35699999999999998
| 10> O        -1.45199999999999996         1.00600000000000001        -2.48600000000000021
| 11> C        -1.37900000000000000         0.34599999999999997        -1.28000000000000003
| 12> C        -0.72499999999999998         2.54700000000000015         0.51900000000000002
| 13> C        -2.09900000000000020         2.70599999999999996         2.90200000000000014
| 14> C        -4.44899999999999984         1.13100000000000001         3.33199999999999985
| 15> C         0.97599999999999998         4.20500000000000007         1.28499999999999992
| 16> C        -0.44800000000000001         4.32699999999999996         3.83999999999999986
| 17> C        -0.25200000000000000         3.38200000000000012         1.51499999999999990
| 18> C        -0.94099999999999995         3.44899999999999984         2.73399999999999999
| 19> O        -3.91400000000000015         0.01400000000000000        -2.54899999999999993
| 20> O        -7.20000000000000018        -1.24800000000000000         0.28799999999999998
| 21> C        -4.31200000000000028        -0.06100000000000000        -1.38599999999999990
| 22> C        -6.14400000000000013        -0.67400000000000004         0.17299999999999999
| 23> C        -1.86899999999999999         1.77099999999999991         0.69299999999999995
| 24> C        -2.59500000000000020         1.87599999999999989         1.90100000000000002
| 25> N        -3.75300000000000011         1.14399999999999991         2.06800000000000006
| 26> C        -3.61299999999999999         0.46000000000000002        -0.22600000000000001
| 27> C        -4.33199999999999985         0.51200000000000001         0.99199999999999999
| 28> N        -5.51999999999999957        -0.61899999999999999        -1.09299999999999997
| 29> N        -5.50300000000000011        -0.04100000000000000         1.17799999999999994
| 30> N        -2.31899999999999995         0.91400000000000003        -0.29099999999999998
| 31> H        -2.33700000000000019         0.79000000000000004        -2.85999999999999988
| 32> H        -1.77200000000000002        -1.40599999999999992         0.76900000000000002
| 33> H        -1.41199999999999992        -1.23300000000000010        -3.48300000000000010
| 34> H        -2.15300000000000002        -3.82500000000000018         0.64200000000000002
| 35> H        -1.77699999999999991        -3.66599999999999993        -3.60899999999999999
| 36> H        -2.16999999999999993        -4.96499999999999986        -1.54699999999999993
| 37> H        -6.04499999999999993        -1.00200000000000000        -1.87000000000000011
| 38> H        -5.29300000000000015         0.45300000000000001         3.22000000000000020
| 39> H        -3.78600000000000003         0.77700000000000002         4.12199999999999989
| 40> H        -4.82000000000000028         2.12599999999999989         3.58199999999999985
| 41> H        -0.21600000000000000         2.52700000000000014        -0.43099999999999999
| 42> H        -2.62999999999999989         2.78799999999999981         3.83599999999999985
| 43> H         0.75300000000000000         5.26499999999999968         1.40100000000000002
| 44> H         1.74900000000000011         3.94899999999999984         2.00800000000000001
| 45> H         1.36699999999999999         4.04100000000000037         0.28499999999999998
| 46> H         0.56299999999999994         4.04499999999999993         4.12899999999999956
| 47> H        -0.41999999999999998         5.36699999999999999         3.51699999999999990
| 48> H        -1.09200000000000008         4.25300000000000011         4.71199999999999974
| 49> H        -0.36899999999999999         0.52200000000000002        -0.88400000000000001
| 50> **                         ****END OF INPUT****
================================================================================

                       *****************************
                       * Geometry Optimization Run *
                       *****************************

Geometry optimization settings:
Update method            Update   .... BFGS
Choice of coordinates    CoordSys .... (2022) Redundant Internals
Initial Hessian          InHess   .... Almloef's Model
Max. no of cycles        MaxIter  .... 138

Convergence Tolerances:
Energy Change            TolE     ....  5.0000e-06 Eh
Max. Gradient            TolMAXG  ....  3.0000e-04 Eh/bohr
RMS Gradient             TolRMSG  ....  1.0000e-04 Eh/bohr
Max. Displacement        TolMAXD  ....  4.0000e-03 bohr
RMS Displacement         TolRMSD  ....  2.0000e-03 bohr
Strict Convergence                .... False

------------------------------------------------------------------------------
                        ORCA OPTIMIZATION COORDINATE SETUP
------------------------------------------------------------------------------

The optimization will be done in redundant internal coordinates (2022)
Making redundant internal coordinates   ...  (2022 redundants) done
Evaluating the initial hessian          ...  (Almloef) done
Evaluating the coordinates              ...  done
Calculating the B-matrix                .... done
Calculating the G-matrix                .... done
The number of degrees of freedom        ....  245

    -----------------------------------------------------------------
                    Redundant Internal Coordinates


    -----------------------------------------------------------------
         Definition                    Initial Value    Approx d2E/dq
    -----------------------------------------------------------------
      1. B(C   2,C   0)                  1.3825         0.642298   
      2. B(C   3,C   1)                  1.3837         0.639395   
      3. B(C   4,C   2)                  1.3848         0.636890   
      4. B(C   4,C   3)                  1.3839         0.638852   
      5. B(C   5,C   0)                  1.3889         0.627324   
      6. B(C   5,C   1)                  1.3864         0.633224   
      7. B(C   7,C   5)                  1.5212         0.385793   
      8. B(C   7,O   6)                  1.3767         0.587569   
      9. B(C  13,C   8)                  1.3831         0.640832   
     10. B(C  13,C  11)                  1.4961         0.423172   
     11. B(C  14,C  13)                  1.4018         0.598191   
     12. B(C  14,C  12)                  1.4957         0.423715   
     13. B(C  14,C   9)                  1.3861         0.633843   
     14. B(C  17,O  15)                  1.2315         1.001725   
     15. B(C  18,O  16)                  1.2074         1.094429   
     16. B(C  19,C   8)                  1.3933         0.617347   
     17. B(C  20,C  19)                  1.4133         0.573580   
     18. B(C  20,C   9)                  1.3917         0.620834   
     19. B(N  21,C  20)                  1.3801         0.580323   
     20. B(N  21,C  10)                  1.4430         0.460574   
     21. B(C  22,C  17)                  1.4511         0.499211   
     22. B(C  23,C  22)                  1.4153         0.569258   
     23. B(C  23,N  21)                  1.3757         0.589866   
     24. B(N  24,C  18)                  1.4125         0.515202   
     25. B(N  24,C  17)                  1.3625         0.619025   
     26. B(N  25,C  23)                  1.3083         0.755482   
     27. B(N  25,C  18)                  1.3497         0.648975   
     28. B(N  26,C  22)                  1.3729         0.595940   
     29. B(N  26,C  19)                  1.3803         0.579915   
     30. B(N  26,C   7)                  1.4780         0.405091   
     31. B(H  27,O   6)                  0.9848         0.474744   
     32. B(H  27,O  15)                  1.7849         0.025114   
     33. B(H  28,C   0)                  1.0824         0.370356   
     34. B(H  29,C   1)                  1.0791         0.374842   
     35. B(H  30,C   2)                  1.0800         0.373610   
     36. B(H  31,C   3)                  1.0797         0.374050   
     37. B(H  32,C   4)                  1.0790         0.374942   
     38. B(H  33,N  24)                  1.0129         0.428063   
     39. B(H  34,C  10)                  1.0884         0.362254   
     40. B(H  35,C  10)                  1.0904         0.359563   
     41. B(H  36,C  10)                  1.0909         0.358849   
     42. B(H  37,C   8)                  1.0780         0.376396   
     43. B(H  38,C   9)                  1.0775         0.376999   
     44. B(H  39,C  11)                  1.0894         0.360899   
     45. B(H  40,C  11)                  1.0889         0.361503   
     46. B(H  41,C  11)                  1.0862         0.365195   
     47. B(H  42,C  12)                  1.0887         0.361886   
     48. B(H  43,C  12)                  1.0894         0.360943   
     49. B(H  44,C  12)                  1.0866         0.364690   
     50. B(H  45,C   7)                  1.0990         0.348336   
     51. A(C   5,C   0,H  28)          120.2035         0.355299   
     52. A(C   2,C   0,H  28)          119.5576         0.356724   
     53. A(C   2,C   0,C   5)          120.2389         0.437762   
     54. A(C   3,C   1,C   5)          120.0945         0.438144   
     55. A(C   3,C   1,H  29)          120.4270         0.357180   
     56. A(C   5,C   1,H  29)          119.4764         0.356592   
     57. A(C   0,C   2,H  30)          119.7361         0.357255   
     58. A(C   0,C   2,C   4)          120.0817         0.438959   
     59. A(C   4,C   2,H  30)          120.1821         0.356742   
     60. A(C   4,C   3,H  31)          120.1514         0.357000   
     61. A(C   1,C   3,C   4)          120.2500         0.438844   
     62. A(C   1,C   3,H  31)          119.5968         0.357051   
     63. A(C   2,C   4,C   3)          119.7748         0.438533   
     64. A(C   2,C   4,H  32)          120.0533         0.356958   
     65. A(C   3,C   4,H  32)          120.1715         0.357144   
     66. A(C   0,C   5,C   7)          120.1628         0.399758   
     67. A(C   0,C   5,C   1)          119.5336         0.436641   
     68. A(C   1,C   5,C   7)          120.2937         0.400417   
     69. A(C   7,O   6,H  27)          105.9734         0.361059   
     70. A(C   5,C   7,N  26)          108.9015         0.368154   
     71. A(C   5,C   7,O   6)          114.9693         0.392668   
     72. A(O   6,C   7,H  45)          106.7138         0.345637   
     73. A(O   6,C   7,N  26)          111.6060         0.393515   
     74. A(N  26,C   7,H  45)          106.3696         0.324920   
     75. A(C   5,C   7,H  45)          107.8451         0.324264   
     76. A(C  13,C   8,C  19)          121.8108         0.436320   
     77. A(C  19,C   8,H  37)          119.1726         0.355307   
     78. A(C  13,C   8,H  37)          118.9706         0.357567   
     79. A(C  14,C   9,C  20)          122.0225         0.435901   
     80. A(C  20,C   9,H  38)          119.5515         0.355744   
     81. A(C  14,C   9,H  38)          118.4229         0.356999   
     82. A(N  21,C  10,H  34)          106.8280         0.334038   
     83. A(N  21,C  10,H  35)          110.1379         0.333625   
     84. A(H  34,C  10,H  35)          110.1100         0.291044   
     85. A(N  21,C  10,H  36)          110.8878         0.333515   
     86. A(H  34,C  10,H  36)          109.1490         0.290953   
     87. A(H  35,C  10,H  36)          109.6848         0.290612   
     88. A(H  40,C  11,H  41)          108.6774         0.291661   
     89. A(H  39,C  11,H  41)          108.5804         0.291584   
     90. A(H  39,C  11,H  40)          107.6594         0.291118   
     91. A(C  13,C  11,H  41)          110.7295         0.331824   
     92. A(C  13,C  11,H  40)          110.5651         0.331266   
     93. A(C  13,C  11,H  39)          110.5407         0.331174   
     94. A(H  42,C  12,H  44)          108.6469         0.291646   
     95. A(H  43,C  12,H  44)          108.5546         0.291526   
     96. A(C  14,C  12,H  44)          110.9833         0.331818   
     97. A(C  14,C  12,H  43)          110.4649         0.331251   
     98. A(C  14,C  12,H  42)          110.5080         0.331395   
     99. A(H  42,C  12,H  43)          107.5861         0.291173   
    100. A(C  11,C  13,C  14)          120.7185         0.402934   
    101. A(C   8,C  13,C  14)          119.1412         0.433850   
    102. A(C   8,C  13,C  11)          120.1396         0.407865   
    103. A(C  12,C  14,C  13)          120.6007         0.403025   
    104. A(C   9,C  14,C  13)          119.3664         0.432995   
    105. A(C   9,C  14,C  12)          120.0269         0.407167   
    106. A(C  22,C  17,N  24)          113.7166         0.414731   
    107. A(O  15,C  17,N  24)          120.9675         0.467207   
    108. A(O  15,C  17,C  22)          125.2672         0.452222   
    109. A(O  16,C  18,N  24)          119.3570         0.459155   
    110. A(N  24,C  18,N  25)          116.0609         0.417863   
    111. A(O  16,C  18,N  25)          124.5704         0.479009   
    112. A(C  20,C  19,N  26)          119.2091         0.420203   
    113. A(C   8,C  19,N  26)          121.6326         0.425761   
    114. A(C   8,C  19,C  20)          119.1541         0.427712   
    115. A(C  19,C  20,N  21)          119.6732         0.420256   
    116. A(C   9,C  20,N  21)          121.8921         0.426245   
    117. A(C   9,C  20,C  19)          118.4249         0.428144   
    118. A(C  20,N  21,C  23)          120.1444         0.419618   
    119. A(C  10,N  21,C  23)          118.5545         0.402769   
    120. A(C  10,N  21,C  20)          121.0293         0.401612   
    121. A(C  17,C  22,C  23)          117.1565         0.411262   
    122. A(C  23,C  22,N  26)          120.4918         0.421683   
    123. A(C  17,C  22,N  26)          122.3384         0.411941   
    124. A(N  21,C  23,C  22)          118.4361         0.420912   
    125. A(C  22,C  23,N  25)          124.1603         0.440033   
    126. A(N  21,C  23,N  25)          117.3682         0.439958   
    127. A(C  17,N  24,C  18)          126.8952         0.414364   
    128. A(C  18,N  24,H  33)          116.3483         0.346970   
    129. A(C  17,N  24,H  33)          116.7057         0.357915   
    130. A(C  18,N  25,C  23)          121.1627         0.447626   
    131. A(C  19,N  26,C  22)          118.6108         0.420333   
    132. A(C   7,N  26,C  22)          120.2695         0.394491   
    133. A(C   7,N  26,C  19)          120.5512         0.392612   
    134. D(H  30,C   2,C   0,H  28)      0.7651         0.028677   
    135. D(C   4,C   2,C   0,C   5)      0.6202         0.028677   
    136. D(H  30,C   2,C   0,C   5)   -179.2325         0.028677   
    137. D(C   4,C   2,C   0,H  28)   -179.3821         0.028677   
    138. D(C   4,C   3,C   1,H  29)   -179.6724         0.028401   
    139. D(C   4,C   3,C   1,C   5)     -0.1888         0.028401   
    140. D(H  31,C   3,C   1,H  29)     -0.1594         0.028401   
    141. D(H  31,C   3,C   1,C   5)    179.3241         0.028401   
    142. D(C   2,C   4,C   3,H  31)    179.5398         0.028350   
    143. D(C   2,C   4,C   3,C   1)     -0.9499         0.028350   
    144. D(C   3,C   4,C   2,H  30)   -179.4146         0.028164   
    145. D(H  32,C   4,C   2,C   0)   -179.4631         0.028164   
    146. D(C   3,C   4,C   2,C   0)      0.7333         0.028164   
    147. D(H  32,C   4,C   3,C   1)    179.2467         0.028350   
    148. D(H  32,C   4,C   3,H  31)     -0.2635         0.028350   
    149. D(H  32,C   4,C   2,H  30)      0.3890         0.028164   
    150. D(C   7,C   5,C   1,C   3)   -179.6125         0.027820   
    151. D(C   7,C   5,C   1,H  29)     -0.1241         0.027820   
    152. D(C   0,C   5,C   1,H  29)   -178.9781         0.027820   
    153. D(C   0,C   5,C   1,C   3)      1.5335         0.027820   
    154. D(C   7,C   5,C   0,H  28)     -0.6040         0.027271   
    155. D(C   7,C   5,C   0,C   2)    179.3936         0.027271   
    156. D(C   1,C   5,C   0,C   2)     -1.7508         0.027271   
    157. D(C   1,C   5,C   0,H  28)    178.2515         0.027271   
    158. D(C   5,C   7,O   6,H  27)     56.6394         0.027738   
    159. D(H  45,C   7,C   5,C   0)     72.7760         0.011086   
    160. D(N  26,C   7,C   5,C   1)    138.8935         0.011086   
    161. D(N  26,C   7,C   5,C   0)    -42.2597         0.011086   
    162. D(O   6,C   7,C   5,C   1)     12.8229         0.011086   
    163. D(N  26,C   7,O   6,H  27)    -68.0250         0.027738   
    164. D(O   6,C   7,C   5,C   0)   -168.3303         0.011086   
    165. D(H  45,C   7,O   6,H  27)    176.1626         0.027738   
    166. D(C  14,C  13,C  11,H  40)     60.4754         0.013236   
    167. D(C  14,C  13,C  11,H  39)    -58.6408         0.013236   
    168. D(C   8,C  13,C  11,H  41)      0.6958         0.013236   
    169. D(C   8,C  13,C  11,H  40)   -119.8150         0.013236   
    170. D(C  14,C  13,C   8,H  37)    177.5858         0.028538   
    171. D(C  14,C  13,C   8,C  19)      0.0720         0.028538   
    172. D(C  11,C  13,C   8,H  37)     -2.1283         0.028538   
    173. D(C   8,C  13,C  11,H  39)    121.0688         0.013236   
    174. D(C  11,C  13,C   8,C  19)   -179.6422         0.028538   
    175. D(C  12,C  14,C  13,C   8)    179.1724         0.024660   
    176. D(C  12,C  14,C  13,C  11)     -1.1152         0.024660   
    177. D(C   9,C  14,C  13,C  11)    177.9995         0.024660   
    178. D(C   9,C  14,C  13,C   8)     -1.7130         0.024660   
    179. D(C  13,C  14,C  12,H  43)     60.0319         0.013269   
    180. D(C  13,C  14,C  12,H  42)    -58.9087         0.013269   
    181. D(C   9,C  14,C  12,H  44)      1.3805         0.013269   
    182. D(C   9,C  14,C  12,H  43)   -119.0768         0.013269   
    183. D(C   9,C  14,C  12,H  42)    121.9826         0.013269   
    184. D(C  13,C  14,C   9,H  38)   -178.4800         0.027878   
    185. D(C  13,C  14,C   9,C  20)      0.8785         0.027878   
    186. D(C  12,C  14,C   9,H  38)      0.6398         0.027878   
    187. D(C  12,C  14,C   9,C  20)    179.9983         0.027878   
    188. D(N  26,C  19,C   8,H  37)      4.1304         0.026359   
    189. D(N  26,C  19,C   8,C  13)   -178.3607         0.026359   
    190. D(C  20,C  19,C   8,H  37)   -175.1171         0.026359   
    191. D(C  20,C  19,C   8,C  13)      2.3918         0.026359   
    192. D(C   9,C  20,C  19,C   8)     -3.1601         0.022580   
    193. D(N  21,C  20,C   9,H  38)     -0.2223         0.026675   
    194. D(N  21,C  20,C   9,C  14)   -179.5737         0.026675   
    195. D(C  19,C  20,C   9,H  38)   -179.0763         0.026675   
    196. D(C  19,C  20,C   9,C  14)      1.5723         0.026675   
    197. D(N  21,C  20,C  19,N  26)     -1.3062         0.022580   
    198. D(N  21,C  20,C  19,C   8)    177.9597         0.022580   
    199. D(C   9,C  20,C  19,N  26)    177.5740         0.022580   
    200. D(C  23,N  21,C  20,C   9)    169.2130         0.027013   
    201. D(C  10,N  21,C  20,C  19)    174.1281         0.027013   
    202. D(C  10,N  21,C  20,C   9)     -4.7120         0.027013   
    203. D(C  23,N  21,C  10,H  35)    128.1030         0.018109   
    204. D(C  23,N  21,C  10,H  34)      8.5320         0.018109   
    205. D(C  20,N  21,C  10,H  36)     63.7203         0.018109   
    206. D(C  20,N  21,C  10,H  35)    -57.8776         0.018109   
    207. D(C  23,N  21,C  20,C  19)    -11.9469         0.027013   
    208. D(C  20,N  21,C  10,H  34)   -177.4486         0.018109   
    209. D(N  26,C  22,C  17,N  24)    172.0503         0.016974   
    210. D(N  26,C  22,C  17,O  15)    -10.4821         0.016974   
    211. D(C  23,C  22,C  17,N  24)     -9.2690         0.016974   
    212. D(C  23,C  22,C  17,O  15)    168.1986         0.016974   
    213. D(N  25,C  23,C  22,C  17)      9.7793         0.022227   
    214. D(N  21,C  23,C  22,N  26)      6.2581         0.022227   
    215. D(N  21,C  23,C  22,C  17)   -172.4483         0.022227   
    216. D(N  25,C  23,N  21,C  20)   -172.5873         0.027970   
    217. D(N  25,C  23,N  21,C  10)      1.4866         0.027970   
    218. D(C  22,C  23,N  21,C  20)      9.4883         0.027970   
    219. D(N  25,C  23,C  22,N  26)   -171.5142         0.022227   
    220. D(C  22,C  23,N  21,C  10)   -176.4378         0.027970   
    221. D(H  33,N  24,C  18,O  16)      5.3931         0.021029   
    222. D(C  17,N  24,C  18,N  25)      3.8925         0.021029   
    223. D(C  17,N  24,C  18,O  16)   -177.2993         0.021029   
    224. D(H  33,N  24,C  17,C  22)   -179.6778         0.031021   
    225. D(H  33,N  24,C  17,O  15)      2.7334         0.031021   
    226. D(C  18,N  24,C  17,C  22)      3.0230         0.031021   
    227. D(H  33,N  24,C  18,N  25)   -173.4151         0.021029   
    228. D(C  18,N  24,C  17,O  15)   -174.5657         0.031021   
    229. D(C  18,N  25,C  23,C  22)     -2.6093         0.043417   
    230. D(C  18,N  25,C  23,N  21)    179.5965         0.043417   
    231. D(C  23,N  25,C  18,N  24)     -4.2076         0.031118   
    232. D(C  23,N  25,C  18,O  16)    177.0539         0.031118   
    233. D(C  19,N  26,C  22,C  23)    -19.3690         0.028589   
    234. D(C   7,N  26,C  22,C  23)    152.0337         0.028589   
    235. D(C   7,N  26,C  22,C  17)    -29.3285         0.028589   
    236. D(C  22,N  26,C  19,C  20)     16.7461         0.026973   
    237. D(C  22,N  26,C  19,C   8)   -162.5010         0.026973   
    238. D(C   7,N  26,C  19,C  20)   -154.6316         0.026973   
    239. D(C   7,N  26,C  19,C   8)     26.1213         0.026973   
    240. D(C  22,N  26,C   7,O   6)     87.4605         0.014004   
    241. D(C  22,N  26,C   7,C   5)    -40.5293         0.014004   
    242. D(C  19,N  26,C   7,H  45)     14.7179         0.014004   
    243. D(C  19,N  26,C  22,C  17)    159.2687         0.028589   
    244. D(C  19,N  26,C   7,O   6)   -101.3049         0.014004   
    245. D(C  19,N  26,C   7,C   5)    130.7052         0.014004   
    -----------------------------------------------------------------

Number of atoms                         .... 46
Number of degrees of freedom            .... 245


         *************************************************************
         *                GEOMETRY OPTIMIZATION CYCLE   1            *
         *************************************************************
---------------------------------
CARTESIAN COORDINATES (ANGSTROEM)
---------------------------------
  C    -1.785000   -1.896000   -0.196000
  C    -1.577000   -1.805000   -2.583000
  C    -1.993000   -3.261000   -0.265000
  C    -1.781000   -3.172000   -2.649000
  C    -1.999000   -3.901000   -1.493000
  C    -1.594000   -1.158000   -1.357000
  O    -1.452000    1.006000   -2.486000
  C    -1.379000    0.346000   -1.280000
  C    -0.725000    2.547000    0.519000
  C    -2.099000    2.706000    2.902000
  C    -4.449000    1.131000    3.332000
  C     0.976000    4.205000    1.285000
  C    -0.448000    4.327000    3.840000
  C    -0.252000    3.382000    1.515000
  C    -0.941000    3.449000    2.734000
  O    -3.914000    0.014000   -2.549000
  O    -7.200000   -1.248000    0.288000
  C    -4.312000   -0.061000   -1.386000
  C    -6.144000   -0.674000    0.173000
  C    -1.869000    1.771000    0.693000
  C    -2.595000    1.876000    1.901000
  N    -3.753000    1.144000    2.068000
  C    -3.613000    0.460000   -0.226000
  C    -4.332000    0.512000    0.992000
  N    -5.520000   -0.619000   -1.093000
  N    -5.503000   -0.041000    1.178000
  N    -2.319000    0.914000   -0.291000
  H    -2.337000    0.790000   -2.860000
  H    -1.772000   -1.406000    0.769000
  H    -1.412000   -1.233000   -3.483000
  H    -2.153000   -3.825000    0.642000
  H    -1.777000   -3.666000   -3.609000
  H    -2.170000   -4.965000   -1.547000
  H    -6.045000   -1.002000   -1.870000
  H    -5.293000    0.453000    3.220000
  H    -3.786000    0.777000    4.122000
  H    -4.820000    2.126000    3.582000
  H    -0.216000    2.527000   -0.431000
  H    -2.630000    2.788000    3.836000
  H     0.753000    5.265000    1.401000
  H     1.749000    3.949000    2.008000
  H     1.367000    4.041000    0.285000
  H     0.563000    4.045000    4.129000
  H    -0.420000    5.367000    3.517000
  H    -1.092000    4.253000    4.712000
  H    -0.369000    0.522000   -0.884000

----------------------------
CARTESIAN COORDINATES (A.U.)
----------------------------
  NO LB    ZA    FRAG    MASS        X           Y           Z
   0 C   6.0000    0    12.011   -3.373161   -3.582921   -0.370386
   1 C   6.0000    0    12.011   -2.980098   -3.410956   -4.881163
   2 C   6.0000    0    12.011   -3.766224   -6.162397   -0.500777
   3 C   6.0000    0    12.011   -3.365602   -5.994211   -5.005885
   4 C   6.0000    0    12.011   -3.777563   -7.371822   -2.821361
   5 C   6.0000    0    12.011   -3.012223   -2.188303   -2.564358
   6 O   8.0000    0    15.999   -2.743882    1.901064   -4.697859
   7 C   6.0000    0    12.011   -2.605932    0.653845   -2.418849
   8 C   6.0000    0    12.011   -1.370051    4.813132    0.980768
   9 C   6.0000    0    12.011   -3.966535    5.113599    5.483985
  10 C   6.0000    0    12.011   -8.407392    2.137280    6.296567
  11 C   6.0000    0    12.011    1.844373    7.946298    2.428298
  12 C   6.0000    0    12.011   -0.846597    8.176845    7.256548
  13 C   6.0000    0    12.011   -0.476211    6.391054    2.862935
  14 C   6.0000    0    12.011   -1.778232    6.517665    5.166511
  15 O   8.0000    0    15.999   -7.396388    0.026456   -4.816912
  16 O   8.0000    0    15.999  -13.606028   -2.358378    0.544241
  17 C   6.0000    0    12.011   -8.148499   -0.115273   -2.619160
  18 C   6.0000    0    12.011  -11.610477   -1.273675    0.326923
  19 C   6.0000    0    12.011   -3.531898    3.346705    1.309580
  20 C   6.0000    0    12.011   -4.903839    3.545126    3.592369
  21 N   7.0000    0    14.007   -7.092142    2.161847    3.907954
  22 C   6.0000    0    12.011   -6.827581    0.869274   -0.427078
  23 C   6.0000    0    12.011   -8.186294    0.967540    1.874608
  24 N   7.0000    0    14.007  -10.431288   -1.169740   -2.065471
  25 N   7.0000    0    14.007  -10.399163   -0.077479    2.226097
  26 N   7.0000    0    14.007   -4.382275    1.727210   -0.549910
  27 H   1.0000    0     1.008   -4.416290    1.492884   -5.404617
  28 H   1.0000    0     1.008   -3.348595   -2.656955    1.453199
  29 H   1.0000    0     1.008   -2.668293   -2.330032   -6.581916
  30 H   1.0000    0     1.008   -4.068580   -7.228202    1.213204
  31 H   1.0000    0     1.008   -3.358043   -6.927736   -6.820022
  32 H   1.0000    0     1.008   -4.100706   -9.382490   -2.923406
  33 H   1.0000    0     1.008  -11.423394   -1.893506   -3.533788
  34 H   1.0000    0     1.008  -10.002320    0.856046    6.084918
  35 H   1.0000    0     1.008   -7.154503    1.468317    7.789451
  36 H   1.0000    0     1.008   -9.108480    4.017558    6.768999
  37 H   1.0000    0     1.008   -0.408181    4.775338   -0.814472
  38 H   1.0000    0     1.008   -4.969980    5.268556    7.248989
  39 H   1.0000    0     1.008    1.422964    9.949408    2.647506
  40 H   1.0000    0     1.008    3.305131    7.462529    3.794570
  41 H   1.0000    0     1.008    2.583256    7.636383    0.538572
  42 H   1.0000    0     1.008    1.063916    7.643942    7.802679
  43 H   1.0000    0     1.008   -0.793685   10.142160    6.646167
  44 H   1.0000    0     1.008   -2.063581    8.037005    8.904390
  45 H   1.0000    0     1.008   -0.697309    0.986437   -1.670518

      -----------------------------------------------------------      
     |                   =====================                   |     
     |                           x T B                           |     
     |                   =====================                   |     
     |                         S. Grimme                         |     
     |          Mulliken Center for Theoretical Chemistry        |     
     |                    University of Bonn                     |     
      -----------------------------------------------------------      

   * xtb version 6.7.1 (edcfbbe) compiled by 'albert@albert-system' on 2024-07-22

   xtb is free software: you can redistribute it and/or modify it under
   the terms of the GNU Lesser General Public License as published by
   the Free Software Foundation, either version 3 of the License, or
   (at your option) any later version.
   
   xtb is distributed in the hope that it will be useful,
   but WITHOUT ANY WARRANTY; without even the implied warranty of
   MERCHANTABILITY or FITNESS FOR A PARTICULAR PURPOSE.  See the
   GNU Lesser General Public License for more details.
   
   Cite this work as:
   * C. Bannwarth, E. Caldeweyher, S. Ehlert, A. Hansen, P. Pracht,
     J. Seibert, S. Spicher, S. Grimme, WIREs Comput. Mol. Sci., 2020, 11,
     e01493. DOI: 10.1002/wcms.1493
   
   for GFN2-xTB:
   * C. Bannwarth, S. Ehlert and S. Grimme., J. Chem. Theory Comput., 2019,
     15, 1652-1671. DOI: 10.1021/acs.jctc.8b01176
   for GFN1-xTB:
   * S. Grimme, C. Bannwarth, P. Shushkov, J. Chem. Theory Comput., 2017,
     13, 1989-2009. DOI: 10.1021/acs.jctc.7b00118
   for GFN0-xTB:
   * P. Pracht, E. Caldeweyher, S. Ehlert, S. Grimme, ChemRxiv, 2019, preprint.
     DOI: 10.26434/chemrxiv.8326202.v1
   for GFN-FF:
   * S. Spicher and S. Grimme, Angew. Chem. Int. Ed., 2020, 59, 15665-15673.
     DOI: 10.1002/anie.202004239
   
   for ALPB and GBSA implicit solvation:
   * S. Ehlert, M. Stahn, S. Spicher, S. Grimme, J. Chem. Theory Comput.,
     2021, 17, 4250-4261. DOI: 10.1021/acs.jctc.1c00471
   
   for ddCOSMO and CPCM-X implicit solvation:
   * M. Stahn, S. Ehlert, S. Grimme, J. Phys. Chem. A,
     2023, XX, XXXX-XXXX. DOI: 10.1021/acs.jpca.3c04382
   
   for DFT-D4:
   * E. Caldeweyher, C. Bannwarth and S. Grimme, J. Chem. Phys., 2017,
     147, 034112. DOI: 10.1063/1.4993215
   * E. Caldeweyher, S. Ehlert, A. Hansen, H. Neugebauer, S. Spicher,
     C. Bannwarth and S. Grimme, J. Chem. Phys., 2019, 150, 154122.
     DOI: 10.1063/1.5090222
   * E. Caldeweyher, J.-M. Mewes, S. Ehlert and S. Grimme, Phys. Chem. Chem. Phys.
     2020, 22, 8499-8512. DOI: 10.1039/D0CP00502A
   
   for sTDA-xTB:
   * S. Grimme and C. Bannwarth, J. Chem. Phys., 2016, 145, 054103.
     DOI: 10.1063/1.4959605
   
   in the mass-spec context:
   * V. Asgeirsson, C. Bauer and S. Grimme, Chem. Sci., 2017, 8, 4879.
     DOI: 10.1039/c7sc00601b
   * J. Koopman and S. Grimme, ACS Omega 2019, 4, 12, 15120-15133.
     DOI: 10.1021/acsomega.9b02011
   
   for metadynamics refer to:
   * S. Grimme, J. Chem. Theory Comput., 2019, 155, 2847-2862
     DOI: 10.1021/acs.jctc.9b00143
   
   for SPH calculations refer to:
   * S. Spicher and S. Grimme, J. Chem. Theory Comput., 2021, 17, 1701-1714
     DOI: 10.1021/acs.jctc.0c01306
   
   for ONIOM refer to:
   * C. Plett, A. Katbashev, S. Ehlert, S. Grimme, M. Bursch,
     Phys. Chem. Chem. Phys., 2023, 25, 17860-17868. DOI: 10.1039/D3CP02178E
   
   for DIPRO refer to:
   * J. Kohn, N. Gildemeister, S. Grimme, D. Fazzi, A. Hansen,
     J. Chem. Phys., 2023, just accepted.
   
   for PTB refer to:
   * S. Grimme, M. Mueller, A. Hansen, J. Chem. Phys., 2023, 158, 124111.
     DOI: 10.1063/5.0137838
   
   with help from (in alphabetical order)
   P. Atkinson, C. Bannwarth, F. Bohle, G. Brandenburg, E. Caldeweyher
   M. Checinski, S. Dohm, S. Ehlert, S. Ehrlich, I. Gerasimov, C. Hölzer
   A. Katbashev, J. Kohn, J. Koopman, C. Lavigne, S. Lehtola, F. März, M. Müller,
   F. Musil, H. Neugebauer, J. Pisarek, C. Plett, P. Pracht, F. Pultar,
   J. Seibert, P. Shushkov, S. Spicher, M. Stahn, M. Steiner, T. Strunk,
   J. Stückrath, T. Rose, and J. Unsleber
   
 * started run on 2025/11/13 at 17:49:42.612     
   ID    Z sym.   atoms
    1    6 C      1-6, 8-15, 18-21, 23, 24
    2    8 O      7, 16, 17
    3    7 N      22, 25-27
    4    1 H      28-46

           -------------------------------------------------
          |                Calculation Setup                |
           -------------------------------------------------

          program call               : /home/mchrnwsk/orca_6_1_0/otool_xtb /home/mchrnwsk/prometheozyme/ingredients/lmo-mandalate/optimised/adduct_left_p/opt_XTB.xyz --grad -c -1 -u 0 -P 16 --namespace /home/mchrnwsk/prometheozyme/ingredients/lmo-mandalate/optimised/adduct_left_p/opt --input /home/mchrnwsk/prometheozyme/ingredients/lmo-mandalate/optimised/adduct_left_p/opt_XTB.input.tmp --acc 0.200000
          calculation namespace      : /home/mchrnwsk/prometheozyme/ingredients/lmo-mandalate/optimised/adduct_left_p/opt
          coordinate file            : /home/mchrnwsk/prometheozyme/ingredients/lmo-mandalate/optimised/adduct_left_p/opt_XTB.xyz
          omp threads                :                    16


           -------------------------------------------------
          |                 G F N 2 - x T B                 |
           -------------------------------------------------

        Reference                      10.1021/acs.jctc.8b01176
      * Hamiltonian:
        H0-scaling (s, p, d)           1.850000    2.230000    2.230000
        zeta-weighting                 0.500000
      * Dispersion:
        s8                             2.700000
        a1                             0.520000
        a2                             5.000000
        s9                             5.000000
      * Repulsion:
        kExp                           1.500000    1.000000
        rExp                           1.000000
      * Coulomb:
        alpha                          2.000000
        third order                    shell-resolved
        anisotropic                    true
        a3                             3.000000
        a5                             4.000000
        cn-shift                       1.200000
        cn-exp                         4.000000
        max-rad                        5.000000


          ...................................................
          :                      SETUP                      :
          :.................................................:
          :  # basis functions                 127          :
          :  # atomic orbitals                 127          :
          :  # shells                           73          :
          :  # electrons                       138          :
          :  max. iterations                   250          :
          :  Hamiltonian                  GFN2-xTB          :
          :  restarted?                      false          :
          :  GBSA solvation                  false          :
          :  PC potential                    false          :
          :  electronic temp.          300.0000000     K    :
          :  accuracy                    0.2000000          :
          :  -> integral cutoff          0.3198970E+02      :
          :  -> integral neglect         0.2000000E-08      :
          :  -> SCF convergence          0.2000000E-06 Eh   :
          :  -> wf. convergence          0.2000000E-04 e    :
          :  Broyden damping             0.4000000          :
          :  net charge                         -1          :
          :  unpaired electrons                  0          :
          ...................................................

 iter      E             dE          RMSdq      gap      omega  full diag
   1    -77.7109090 -0.777109E+02  0.418E+00    1.89       0.0  T
   2    -77.8428596 -0.131951E+00  0.242E+00    1.60       1.0  T
   3    -77.8408932  0.196630E-02  0.114E+00    1.64       1.0  T
   4    -77.8478346 -0.694137E-02  0.426E-01    1.42       1.0  T
   5    -77.8548509 -0.701627E-02  0.115E-01    1.52       1.0  T
   6    -77.8552314 -0.380567E-03  0.545E-02    1.53       1.0  T
   7    -77.8552905 -0.590339E-04  0.263E-02    1.54       1.0  T
   8    -77.8552941 -0.363538E-05  0.120E-02    1.53       1.2  T
   9    -77.8553008 -0.673008E-05  0.373E-03    1.54       4.0  T
  10    -77.8553011 -0.208720E-06  0.186E-03    1.54       7.9  T
  11    -77.8553011 -0.269317E-07  0.690E-04    1.54      21.4  T
  12    -77.8553011 -0.100145E-07  0.258E-04    1.54      57.2  T
  13    -77.8553011 -0.861391E-09  0.107E-04    1.54     137.3  T
  14    -77.8553011 -0.575824E-10  0.381E-05    1.54     387.4  T

   *** convergence criteria satisfied after 14 iterations ***

         #    Occupation            Energy/Eh            Energy/eV
      -------------------------------------------------------------
         1        2.0000           -0.5730070             -15.5923
       ...           ...                  ...                  ...
        63        2.0000           -0.2755800              -7.4989
        64        2.0000           -0.2714043              -7.3853
        65        2.0000           -0.2654088              -7.2221
        66        2.0000           -0.2495926              -6.7918
        67        2.0000           -0.2387731              -6.4973
        68        2.0000           -0.2341275              -6.3709
        69        2.0000           -0.1815681              -4.9407 (HOMO)
        70                         -0.1251140              -3.4045 (LUMO)
        71                         -0.1235327              -3.3615
        72                         -0.1078586              -2.9350
        73                         -0.0952557              -2.5920
        74                         -0.0675956              -1.8394
       ...                                ...                  ...
       127                          0.8452968              23.0017
      -------------------------------------------------------------
                  HL-Gap            0.0564540 Eh            1.5362 eV
             Fermi-level           -0.1534398 Eh           -4.1753 eV

 SCC (total)                   0 d,  0 h,  0 min,  0.053 sec
 SCC setup                      ...        0 min,  0.000 sec (  0.908%)
 Dispersion                     ...        0 min,  0.001 sec (  2.054%)
 classical contributions        ...        0 min,  0.000 sec (  0.100%)
 integral evaluation            ...        0 min,  0.005 sec (  8.508%)
 iterations                     ...        0 min,  0.042 sec ( 79.328%)
 molecular gradient             ...        0 min,  0.005 sec (  8.530%)
 printout                       ...        0 min,  0.000 sec (  0.491%)

         :::::::::::::::::::::::::::::::::::::::::::::::::::::
         ::                     SUMMARY                     ::
         :::::::::::::::::::::::::::::::::::::::::::::::::::::
         :: total energy             -76.753962958400 Eh    ::
         :: gradient norm              0.111673727764 Eh/a0 ::
         :: HOMO-LUMO gap              1.536192694182 eV    ::
         ::.................................................::
         :: SCC energy               -77.854408810124 Eh    ::
         :: -> isotropic ES            0.209558173339 Eh    ::
         :: -> anisotropic ES          0.006074905442 Eh    ::
         :: -> anisotropic XC          0.022409077995 Eh    ::
         :: -> dispersion             -0.060876893668 Eh    ::
         :: repulsion energy           1.100445851724 Eh    ::
         :: add. restraining           0.000000000000 Eh    ::
         :: total charge              -1.000000000000 e     ::
         :::::::::::::::::::::::::::::::::::::::::::::::::::::


Property printout bound to 'properties.out'

           -------------------------------------------------
          | TOTAL ENERGY              -76.753962958400 Eh   |
          | GRADIENT NORM               0.111673727764 Eh/α |
          | HOMO-LUMO GAP               1.536192694182 eV   |
           -------------------------------------------------

------------------------------------------------------------------------
 * finished run on 2025/11/13 at 17:49:42.686     
------------------------------------------------------------------------
 total:
 * wall-time:     0 d,  0 h,  0 min,  0.073 sec
 *  cpu-time:     0 d,  0 h,  0 min,  1.072 sec
 * ratio c/w:    14.777 speedup
 SCF:
 * wall-time:     0 d,  0 h,  0 min,  0.053 sec
 *  cpu-time:     0 d,  0 h,  0 min,  0.843 sec
 * ratio c/w:    15.866 speedup


-------------------------   --------------------
FINAL SINGLE POINT ENERGY       -76.753962958400
-------------------------   --------------------


-------------
DIPOLE MOMENT
-------------
                                X             Y             Z
Total Dipole Moment    :      8.47000      -0.25500       0.77900
                        -----------------------------------------
Magnitude (a.u.)       :      8.50957
Magnitude (Debye)      :     21.62961


------------------
CARTESIAN GRADIENT
------------------

   1   C   :   -0.000204007   -0.000678981   -0.001095711
   2   C   :    0.000269009    0.001269032   -0.001062861
   3   C   :   -0.000309242    0.000045098    0.001169864
   4   C   :   -0.000119114   -0.000697814   -0.000654424
   5   C   :   -0.000292387   -0.001248490   -0.000227999
   6   C   :   -0.001474745   -0.002627112    0.001978219
   7   O   :   -0.005536664   -0.001279366    0.008590344
   8   C   :    0.010203181   -0.001544325   -0.015995531
   9   C   :    0.005751712    0.002906312    0.002357615
  10   C   :    0.007801791    0.006128191    0.004742486
  11   C   :   -0.000712862   -0.000836651    0.003556500
  12   C   :   -0.001008248   -0.000860831   -0.000404652
  13   C   :   -0.000936090   -0.001337832   -0.000590567
  14   C   :    0.004923943   -0.002264975   -0.014291673
  15   C   :   -0.010188874   -0.001946545    0.011480224
  16   O   :   -0.006134135    0.002244959    0.024133183
  17   O   :    0.019925734    0.011092581   -0.001162791
  18   C   :   -0.013452966   -0.017545087   -0.036220310
  19   C   :   -0.026612126   -0.015601002   -0.001191156
  20   C   :    0.000107385   -0.001736272    0.001660834
  21   C   :   -0.009307968   -0.006114082   -0.000805555
  22   N   :    0.002114871    0.001429612   -0.012358702
  23   C   :    0.051824829    0.020448621   -0.003178260
  24   C   :   -0.020521167    0.007074693    0.031435968
  25   N   :    0.011934676    0.004094936   -0.005394478
  26   N   :    0.020757899    0.008690734    0.001967271
  27   N   :   -0.040103088   -0.009924429    0.008369297
  28   H   :    0.005143556    0.001277076   -0.004104910
  29   H   :    0.000449836   -0.000369584    0.001424960
  30   H   :    0.000317500   -0.000260071   -0.000128446
  31   H   :    0.000366433    0.000434325   -0.000440680
  32   H   :    0.000030106    0.000915808    0.000955566
  33   H   :    0.000351029    0.001703230    0.000134086
  34   H   :   -0.000402050    0.000379287   -0.000224234
  35   H   :   -0.000241479    0.000034345    0.001286743
  36   H   :   -0.001058894    0.000141151   -0.001701175
  37   H   :    0.001000884   -0.001868222   -0.001642610
  38   H   :   -0.000271435    0.000345841    0.000482378
  39   H   :    0.000092059    0.000186791   -0.001038298
  40   H   :   -0.000312975   -0.001177234    0.000176789
  41   H   :   -0.001783644   -0.000029215   -0.000647511
  42   H   :   -0.000277655    0.000167799    0.000704027
  43   H   :   -0.001597773   -0.000029632   -0.001336605
  44   H   :   -0.000064429   -0.001594750   -0.000509886
  45   H   :    0.000462191    0.000085527   -0.000635210
  46   H   :   -0.000904606    0.000476554    0.000437880

Difference to translation invariance:
           :    0.0000000000   -0.0000000000   -0.0000000000

Difference to rotation invariance:
           :    0.0000000108   -0.0000000661   -0.0000000301

Norm of the Cartesian gradient     ...    0.1116737278
RMS gradient                       ...    0.0095062990
MAX gradient                       ...    0.0518248290
------------------------------------------------------------------------------
                         ORCA GEOMETRY RELAXATION STEP
------------------------------------------------------------------------------

Reading the OPT-File                    .... done
Getting information on internals        .... done
Copying old internal coords+grads       .... done
Making the new internal coordinates     .... (2022 redundants) done
Validating the new internal coordinates .... (2022 redundants) done
Calculating the B-matrix                .... done
Calculating the G,G- and P matrices     .... done
Transforming gradient to internals      .... done
Projecting the internal gradient        .... done
Number of atoms                         ....  46
Number of internal coordinates          .... 245
Current Energy                          ....   -76.753962958 Eh
Current gradient norm                   ....     0.111673728 Eh/bohr
Maximum allowed component of the step   ....  0.300
Current trust radius                    ....  0.300
Evaluating the initial hessian          ....  (Almloef) done
Projecting the Hessian                  .... done
Forming the augmented Hessian           .... done
Diagonalizing the augmented Hessian     .... done
Last element of RFO vector              ....  0.975871012
Lowest eigenvalues of augmented Hessian:
 -0.008523458  0.011106604  0.013235966  0.013269068  0.018109039
Length of the computed step             ....  0.223746595
The final length of the internal step   ....  0.223746595
Converting the step to Cartesian space:
 Initial RMS(Int)=    0.0142946456
Transforming coordinates:
 Iter   0:  RMS(Cart)=    0.0452931039 RMS(Int)=    0.6938081342
 Iter   5:  RMS(Cart)=    0.0000000045 RMS(Int)=    0.0000000025
done
Storing new coordinates                 .... done

                                .--------------------.
          ----------------------|Geometry convergence|-------------------------
          Item                value                   Tolerance       Converged
          ---------------------------------------------------------------------
          RMS gradient        0.0043514702            0.0001000000      NO
          MAX gradient        0.0356792973            0.0003000000      NO
          RMS step            0.0142946456            0.0020000000      NO
          MAX step            0.0623622650            0.0040000000      NO
          -------------------------------------------------------------------------
          ........................................................
          Max(Bonds)      0.0318      Max(Angles)    1.18
          Max(Dihed)        3.57      Max(Improp)    0.00
          ---------------------------------------------------------------------

The optimization has not yet converged - more geometry cycles are needed


    ---------------------------------------------------------------------------
                         Redundant Internal Coordinates
                            (Angstroem and degrees)

        Definition                    Value    dE/dq     Step     New-Value
    ----------------------------------------------------------------------------
     1. B(C   2,C   0)                1.3825 -0.000834  0.0007    1.3832   
     2. B(C   3,C   1)                1.3837 -0.000353  0.0003    1.3840   
     3. B(C   4,C   2)                1.3848  0.000162 -0.0001    1.3847   
     4. B(C   4,C   3)                1.3839  0.000152 -0.0001    1.3838   
     5. B(C   5,C   0)                1.3889  0.000667 -0.0006    1.3883   
     6. B(C   5,C   1)                1.3864 -0.000069  0.0001    1.3864   
     7. B(C   7,C   5)                1.5212  0.001481 -0.0020    1.5193   
     8. B(C   7,O   6)                1.3767 -0.004349  0.0039    1.3807   
     9. B(C  13,C   8)                1.3831 -0.007655  0.0063    1.3894   
    10. B(C  13,C  11)                1.4961 -0.003795  0.0047    1.5007   
    11. B(C  14,C  13)                1.4018  0.010735 -0.0093    1.3925   
    12. B(C  14,C  12)                1.4957 -0.004664  0.0057    1.5014   
    13. B(C  14,C   9)                1.3861 -0.008161  0.0067    1.3928   
    14. B(C  17,O  15)                1.2315 -0.023970  0.0125    1.2440   
    15. B(C  18,O  16)                1.2074 -0.022811  0.0109    1.2184   
    16. B(C  19,C   8)                1.3933  0.001015 -0.0009    1.3924   
    17. B(C  20,C  19)                1.4133  0.002048 -0.0021    1.4112   
    18. B(C  20,C   9)                1.3917  0.003364 -0.0029    1.3889   
    19. B(N  21,C  20)                1.3801 -0.008885  0.0078    1.3879   
    20. B(N  21,C  10)                1.4430  0.001825 -0.0021    1.4410   
    21. B(C  22,C  17)                1.4511  0.017716 -0.0183    1.4327   
    22. B(C  23,C  22)                1.4153  0.018487 -0.0167    1.3987   
    23. B(C  23,N  21)                1.3757 -0.013670  0.0120    1.3876   
    24. B(N  24,C  18)                1.4125  0.005785 -0.0059    1.4066   
    25. B(N  24,C  17)                1.3625 -0.010495  0.0088    1.3713   
    26. B(N  25,C  23)                1.3083 -0.016798  0.0117    1.3200   
    27. B(N  25,C  18)                1.3497  0.010387 -0.0084    1.3413   
    28. B(N  26,C  22)                1.3729 -0.035679  0.0318    1.4047   
    29. B(N  26,C  19)                1.3803 -0.000329  0.0003    1.3806   
    30. B(N  26,C   7)                1.4780  0.011587 -0.0146    1.4633   
    31. B(H  27,O   6)                0.9848 -0.002193  0.0021    0.9869   
    32. B(H  27,O  15)                1.7849  0.001398 -0.0267    1.7582   
    33. B(H  28,C   0)                1.0824  0.001109 -0.0015    1.0808   
    34. B(H  29,C   1)                1.0791  0.000018 -0.0000    1.0791   
    35. B(H  30,C   2)                1.0800 -0.000651  0.0009    1.0809   
    36. B(H  31,C   3)                1.0797 -0.001269  0.0018    1.0814   
    37. B(H  32,C   4)                1.0790 -0.001742  0.0024    1.0814   
    38. B(H  33,N  24)                1.0129  0.000237 -0.0003    1.0127   
    39. B(H  34,C  10)                1.0884  0.000033 -0.0000    1.0883   
    40. B(H  35,C  10)                1.0904 -0.001922  0.0028    1.0932   
    41. B(H  36,C  10)                1.0909 -0.002421  0.0035    1.0944   
    42. B(H  37,C   8)                1.0780 -0.000560  0.0008    1.0787   
    43. B(H  38,C   9)                1.0775 -0.000931  0.0013    1.0788   
    44. B(H  39,C  11)                1.0894 -0.001063  0.0015    1.0909   
    45. B(H  40,C  11)                1.0889 -0.001689  0.0024    1.0914   
    46. B(H  41,C  11)                1.0862 -0.000773  0.0011    1.0873   
    47. B(H  42,C  12)                1.0887 -0.001831  0.0026    1.0913   
    48. B(H  43,C  12)                1.0894 -0.001373  0.0020    1.0913   
    49. B(H  44,C  12)                1.0866 -0.000790  0.0011    1.0877   
    50. B(H  45,C   7)                1.0990 -0.000597  0.0009    1.0999   
    51. A(C   5,C   0,H  28)          120.20  0.001012   -0.16    120.05   
    52. A(C   2,C   0,H  28)          119.56 -0.000805    0.13    119.69   
    53. A(C   2,C   0,C   5)          120.24 -0.000207    0.03    120.27   
    54. A(C   3,C   1,C   5)          120.09 -0.000720    0.10    120.19   
    55. A(C   3,C   1,H  29)          120.43  0.000092   -0.01    120.42   
    56. A(C   5,C   1,H  29)          119.48  0.000629   -0.09    119.39   
    57. A(C   0,C   2,H  30)          119.74 -0.000017    0.00    119.74   
    58. A(C   0,C   2,C   4)          120.08 -0.000293    0.04    120.12   
    59. A(C   4,C   2,H  30)          120.18  0.000311   -0.05    120.14   
    60. A(C   4,C   3,H  31)          120.15  0.000299   -0.05    120.10   
    61. A(C   1,C   3,C   4)          120.25  0.000174   -0.02    120.23   
    62. A(C   1,C   3,H  31)          119.60 -0.000472    0.07    119.67   
    63. A(C   2,C   4,C   3)          119.77  0.000369   -0.05    119.73   
    64. A(C   2,C   4,H  32)          120.05 -0.000226    0.03    120.08   
    65. A(C   3,C   4,H  32)          120.17 -0.000143    0.02    120.19   
    66. A(C   0,C   5,C   7)          120.16  0.001357   -0.19    119.97   
    67. A(C   0,C   5,C   1)          119.53  0.000676   -0.09    119.44   
    68. A(C   1,C   5,C   7)          120.29 -0.002033    0.28    120.58   
    69. A(C   7,O   6,H  27)          105.97  0.007935   -1.18    104.79   
    70. A(C   5,C   7,N  26)          108.90  0.000550   -0.21    108.69   
    71. A(C   5,C   7,O   6)          114.97  0.002011   -0.55    114.42   
    72. A(O   6,C   7,H  45)          106.71 -0.000569    0.20    106.92   
    73. A(O   6,C   7,N  26)          111.61 -0.001301    0.21    111.82   
    74. A(N  26,C   7,H  45)          106.37 -0.001320    0.54    106.91   
    75. A(C   5,C   7,H  45)          107.85  0.000395   -0.10    107.74   
    76. A(C  13,C   8,C  19)          121.81 -0.001529    0.22    122.03   
    77. A(C  19,C   8,H  37)          119.17  0.000972   -0.12    119.05   
    78. A(C  13,C   8,H  37)          118.97  0.000528   -0.05    118.92   
    79. A(C  14,C   9,C  20)          122.02 -0.001787    0.23    122.25   
    80. A(C  20,C   9,H  38)          119.55  0.000725   -0.09    119.47   
    81. A(C  14,C   9,H  38)          118.42  0.001056   -0.14    118.29   
    82. A(N  21,C  10,H  34)          106.83  0.002322   -0.41    106.42   
    83. A(N  21,C  10,H  35)          110.14 -0.000588    0.11    110.25   
    84. A(H  34,C  10,H  35)          110.11 -0.000691    0.10    110.21   
    85. A(N  21,C  10,H  36)          110.89 -0.001861    0.33    111.21   
    86. A(H  34,C  10,H  36)          109.15  0.000025   -0.03    109.12   
    87. A(H  35,C  10,H  36)          109.68  0.000808   -0.10    109.58   
    88. A(H  40,C  11,H  41)          108.68  0.000510   -0.12    108.56   
    89. A(H  39,C  11,H  41)          108.58  0.000346   -0.10    108.48   
    90. A(H  39,C  11,H  40)          107.66  0.000585   -0.04    107.62   
    91. A(C  13,C  11,H  41)          110.73  0.000514   -0.11    110.62   
    92. A(C  13,C  11,H  40)          110.57 -0.001162    0.22    110.78   
    93. A(C  13,C  11,H  39)          110.54 -0.000747    0.14    110.68   
    94. A(H  42,C  12,H  44)          108.65  0.000623   -0.16    108.49   
    95. A(H  43,C  12,H  44)          108.55  0.000550   -0.14    108.41   
    96. A(C  14,C  12,H  44)          110.98  0.000649   -0.14    110.84   
    97. A(C  14,C  12,H  43)          110.46 -0.001220    0.23    110.70   
    98. A(C  14,C  12,H  42)          110.51 -0.001261    0.24    110.75   
    99. A(H  42,C  12,H  43)          107.59  0.000718   -0.04    107.55   
   100. A(C  11,C  13,C  14)          120.72 -0.000303    0.04    120.76   
   101. A(C   8,C  13,C  14)          119.14  0.000513   -0.06    119.08   
   102. A(C   8,C  13,C  11)          120.14 -0.000210    0.02    120.16   
   103. A(C  12,C  14,C  13)          120.60 -0.000863    0.12    120.72   
   104. A(C   9,C  14,C  13)          119.37  0.001403   -0.18    119.18   
   105. A(C   9,C  14,C  12)          120.03 -0.000542    0.07    120.10   
   106. A(C  22,C  17,N  24)          113.72 -0.000536    0.07    113.79   
   107. A(O  15,C  17,N  24)          120.97  0.005796   -0.70    120.26   
   108. A(O  15,C  17,C  22)          125.27 -0.005306    0.73    125.99   
   109. A(O  16,C  18,N  24)          119.36  0.000177   -0.01    119.34   
   110. A(N  24,C  18,N  25)          116.06  0.002026   -0.25    115.81   
   111. A(O  16,C  18,N  25)          124.57 -0.002209    0.27    124.84   
   112. A(C  20,C  19,N  26)          119.21  0.001598   -0.22    118.99   
   113. A(C   8,C  19,N  26)          121.63 -0.003114    0.44    122.07   
   114. A(C   8,C  19,C  20)          119.15  0.001509   -0.20    118.95   
   115. A(C  19,C  20,N  21)          119.67 -0.001010    0.09    119.77   
   116. A(C   9,C  20,N  21)          121.89  0.001117   -0.11    121.78   
   117. A(C   9,C  20,C  19)          118.42 -0.000107    0.01    118.44   
   118. A(C  20,N  21,C  23)          120.14 -0.002486    0.25    120.40   
   119. A(C  10,N  21,C  23)          118.55  0.000915   -0.13    118.42   
   120. A(C  10,N  21,C  20)          121.03  0.001661   -0.26    120.77   
   121. A(C  17,C  22,C  23)          117.16 -0.001126    0.08    117.24   
   122. A(C  23,C  22,N  26)          120.49  0.001672   -0.24    120.25   
   123. A(C  17,C  22,N  26)          122.34 -0.000532    0.14    122.48   
   124. A(N  21,C  23,C  22)          118.44  0.000513   -0.07    118.37   
   125. A(C  22,C  23,N  25)          124.16 -0.003818    0.55    124.71   
   126. A(N  21,C  23,N  25)          117.37  0.003250   -0.41    116.96   
   127. A(C  17,N  24,C  18)          126.90 -0.000365    0.06    126.95   
   128. A(C  18,N  24,H  33)          116.35  0.000106   -0.01    116.34   
   129. A(C  17,N  24,H  33)          116.71  0.000252   -0.03    116.67   
   130. A(C  18,N  25,C  23)          121.16  0.003728   -0.43    120.74   
   131. A(C  19,N  26,C  22)          118.61 -0.000122   -0.04    118.57   
   132. A(C   7,N  26,C  22)          120.27  0.003334   -0.43    119.84   
   133. A(C   7,N  26,C  19)          120.55 -0.003128    0.33    120.88   
   134. D(H  30,C   2,C   0,H  28)      0.77  0.000106   -0.18      0.58   
   135. D(C   4,C   2,C   0,C   5)      0.62 -0.000066    0.06      0.68   
   136. D(H  30,C   2,C   0,C   5)   -179.23 -0.000219    0.31   -178.92   
   137. D(C   4,C   2,C   0,H  28)   -179.38  0.000259   -0.43   -179.81   
   138. D(C   4,C   3,C   1,H  29)   -179.67 -0.000167    0.29   -179.38   
   139. D(C   4,C   3,C   1,C   5)     -0.19 -0.000098    0.20      0.01   
   140. D(H  31,C   3,C   1,H  29)     -0.16 -0.000084    0.15     -0.01   
   141. D(H  31,C   3,C   1,C   5)    179.32 -0.000015    0.05    179.38   
   142. D(C   2,C   4,C   3,H  31)    179.54 -0.000095    0.19    179.73   
   143. D(C   2,C   4,C   3,C   1)     -0.95 -0.000016    0.04     -0.91   
   144. D(C   3,C   4,C   2,H  30)   -179.41  0.000246   -0.42   -179.84   
   145. D(H  32,C   4,C   2,C   0)   -179.46 -0.000055    0.09   -179.37   
   146. D(C   3,C   4,C   2,C   0)      0.73  0.000093   -0.17      0.56   
   147. D(H  32,C   4,C   3,C   1)    179.25  0.000132   -0.22    179.03   
   148. D(H  32,C   4,C   3,H  31)     -0.26  0.000052   -0.07     -0.34   
   149. D(H  32,C   4,C   2,H  30)      0.39  0.000099   -0.16      0.23   
   150. D(C   7,C   5,C   1,C   3)   -179.61  0.000082   -0.00   -179.62   
   151. D(C   7,C   5,C   1,H  29)     -0.12  0.000147   -0.10     -0.22   
   152. D(C   0,C   5,C   1,H  29)   -178.98  0.000200   -0.40   -179.38   
   153. D(C   0,C   5,C   1,C   3)      1.53  0.000135   -0.31      1.22   
   154. D(C   7,C   5,C   0,H  28)     -0.60 -0.000296    0.37     -0.24   
   155. D(C   7,C   5,C   0,C   2)    179.39  0.000031   -0.13    179.27   
   156. D(C   1,C   5,C   0,C   2)     -1.75 -0.000061    0.18     -1.57   
   157. D(C   1,C   5,C   0,H  28)    178.25 -0.000388    0.68    178.93   
   158. D(C   5,C   7,O   6,H  27)     56.64 -0.001664    2.51     59.14   
   159. D(H  45,C   7,C   5,C   0)     72.78 -0.001071    1.24     74.02   
   160. D(N  26,C   7,C   5,C   1)    138.89  0.000050    0.46    139.36   
   161. D(N  26,C   7,C   5,C   0)    -42.26 -0.000012    0.77    -41.49   
   162. D(O   6,C   7,C   5,C   1)     12.82 -0.000194    0.77     13.60   
   163. D(N  26,C   7,O   6,H  27)    -68.03 -0.002938    3.06    -64.97   
   164. D(O   6,C   7,C   5,C   0)   -168.33 -0.000256    1.08   -167.25   
   165. D(H  45,C   7,O   6,H  27)    176.16 -0.000343    2.19    178.35   
   166. D(C  14,C  13,C  11,H  40)     60.48 -0.000192    0.04     60.52   
   167. D(C  14,C  13,C  11,H  39)    -58.64  0.000299   -0.14    -58.78   
   168. D(C   8,C  13,C  11,H  41)      0.70 -0.000052    0.02      0.72   
   169. D(C   8,C  13,C  11,H  40)   -119.82 -0.000263    0.10   -119.71   
   170. D(C  14,C  13,C   8,H  37)    177.59 -0.000234    0.17    177.75   
   171. D(C  14,C  13,C   8,C  19)      0.07  0.000548   -0.90     -0.83   
   172. D(C  11,C  13,C   8,H  37)     -2.13 -0.000162    0.10     -2.02   
   173. D(C   8,C  13,C  11,H  39)    121.07  0.000228   -0.08    120.99   
   174. D(C  11,C  13,C   8,C  19)   -179.64  0.000621   -0.97   -180.61   
   175. D(C  12,C  14,C  13,C   8)    179.17 -0.000087    0.16    179.33   
   176. D(C  12,C  14,C  13,C  11)     -1.12 -0.000160    0.22     -0.90   
   177. D(C   9,C  14,C  13,C  11)    178.00 -0.000290    0.51    178.51   
   178. D(C   9,C  14,C  13,C   8)     -1.71 -0.000217    0.45     -1.27   
   179. D(C  13,C  14,C  12,H  43)     60.03 -0.000418    0.34     60.37   
   180. D(C  13,C  14,C  12,H  42)    -58.91  0.000263    0.09    -58.82   
   181. D(C   9,C  14,C  12,H  44)      1.38  0.000004   -0.07      1.31   
   182. D(C   9,C  14,C  12,H  43)   -119.08 -0.000304    0.05   -119.03   
   183. D(C   9,C  14,C  12,H  42)    121.98  0.000377   -0.20    121.78   
   184. D(C  13,C  14,C   9,H  38)   -178.48  0.000250   -0.60   -179.08   
   185. D(C  13,C  14,C   9,C  20)      0.88 -0.000307    0.47      1.35   
   186. D(C  12,C  14,C   9,H  38)      0.64  0.000117   -0.31      0.33   
   187. D(C  12,C  14,C   9,C  20)    180.00 -0.000440    0.76    180.76   
   188. D(N  26,C  19,C   8,H  37)      4.13 -0.000232    0.12      4.25   
   189. D(N  26,C  19,C   8,C  13)   -178.36 -0.001027    1.20   -177.16   
   190. D(C  20,C  19,C   8,H  37)   -175.12  0.000324   -0.62   -175.74   
   191. D(C  20,C  19,C   8,C  13)      2.39 -0.000471    0.45      2.84   
   192. D(C   9,C  20,C  19,C   8)     -3.16 -0.000064    0.46     -2.70   
   193. D(N  21,C  20,C   9,H  38)     -0.22 -0.000274    0.29      0.07   
   194. D(N  21,C  20,C   9,C  14)   -179.57  0.000287   -0.79   -180.36   
   195. D(C  19,C  20,C   9,H  38)   -179.08 -0.000218    0.17   -178.91   
   196. D(C  19,C  20,C   9,C  14)      1.57  0.000344   -0.91      0.66   
   197. D(N  21,C  20,C  19,N  26)     -1.31  0.000544   -0.39     -1.70   
   198. D(N  21,C  20,C  19,C   8)    177.96 -0.000033    0.34    178.30   
   199. D(C   9,C  20,C  19,N  26)    177.57  0.000514   -0.27    177.30   
   200. D(C  23,N  21,C  20,C   9)    169.21  0.000703   -0.15    169.06   
   201. D(C  10,N  21,C  20,C  19)    174.13 -0.000392    1.50    175.63   
   202. D(C  10,N  21,C  20,C   9)     -4.71 -0.000345    1.38     -3.34   
   203. D(C  23,N  21,C  10,H  35)    128.10 -0.000265    0.79    128.89   
   204. D(C  23,N  21,C  10,H  34)      8.53 -0.000486    0.85      9.38   
   205. D(C  20,N  21,C  10,H  36)     63.72 -0.000052   -0.54     63.18   
   206. D(C  20,N  21,C  10,H  35)    -57.88  0.000564   -0.69    -58.57   
   207. D(C  23,N  21,C  20,C  19)    -11.95  0.000657   -0.03    -11.98   
   208. D(C  20,N  21,C  10,H  34)   -177.45  0.000343   -0.63   -178.08   
   209. D(N  26,C  22,C  17,N  24)    172.05 -0.000900    1.20    173.25   
   210. D(N  26,C  22,C  17,O  15)    -10.48 -0.001913    3.57     -6.91   
   211. D(C  23,C  22,C  17,N  24)     -9.27 -0.000205    0.15     -9.12   
   212. D(C  23,C  22,C  17,O  15)    168.20 -0.001218    2.53    170.73   
   213. D(N  25,C  23,C  22,C  17)      9.78  0.000707   -1.04      8.74   
   214. D(N  21,C  23,C  22,N  26)      6.26 -0.000287    0.53      6.79   
   215. D(N  21,C  23,C  22,C  17)   -172.45 -0.000938    1.55   -170.90   
   216. D(N  25,C  23,N  21,C  20)   -172.59 -0.001082    2.26   -170.33   
   217. D(N  25,C  23,N  21,C  10)      1.49 -0.000007    0.76      2.25   
   218. D(C  22,C  23,N  21,C  20)      9.49  0.000606   -0.17      9.32   
   219. D(N  25,C  23,C  22,N  26)   -171.51  0.001359   -2.06   -173.57   
   220. D(C  22,C  23,N  21,C  10)   -176.44  0.001681   -1.67   -178.11   
   221. D(H  33,N  24,C  18,O  16)      5.39  0.000342   -0.74      4.66   
   222. D(C  17,N  24,C  18,N  25)      3.89  0.000448   -0.62      3.27   
   223. D(C  17,N  24,C  18,O  16)   -177.30  0.000153   -0.26   -177.56   
   224. D(H  33,N  24,C  17,C  22)   -179.68 -0.000615    1.14   -178.53   
   225. D(H  33,N  24,C  17,O  15)      2.73  0.000654   -1.16      1.58   
   226. D(C  18,N  24,C  17,C  22)      3.02 -0.000422    0.66      3.69   
   227. D(H  33,N  24,C  18,N  25)   -173.42  0.000637   -1.10   -174.52   
   228. D(C  18,N  24,C  17,O  15)   -174.57  0.000847   -1.64   -176.20   
   229. D(C  18,N  25,C  23,C  22)     -2.61 -0.001051    1.17     -1.44   
   230. D(C  18,N  25,C  23,N  21)    179.60  0.000632   -1.40    178.20   
   231. D(C  23,N  25,C  18,N  24)     -4.21  0.000186   -0.31     -4.52   
   232. D(C  23,N  25,C  18,O  16)    177.05  0.000462   -0.69    176.36   
   233. D(C  19,N  26,C  22,C  23)    -19.37  0.001018   -0.91    -20.28   
   234. D(C   7,N  26,C  22,C  23)    152.03  0.001372   -1.90    150.13   
   235. D(C   7,N  26,C  22,C  17)    -29.33  0.002052   -2.98    -32.31   
   236. D(C  22,N  26,C  19,C  20)     16.75 -0.000035    0.73     17.47   
   237. D(C  22,N  26,C  19,C   8)   -162.50  0.000521   -0.02   -162.52   
   238. D(C   7,N  26,C  19,C  20)   -154.63 -0.000965    1.79   -152.84   
   239. D(C   7,N  26,C  19,C   8)     26.12 -0.000409    1.04     27.17   
   240. D(C  22,N  26,C   7,O   6)     87.46  0.001291   -0.40     87.06   
   241. D(C  22,N  26,C   7,C   5)    -40.53 -0.000795    0.32    -40.21   
   242. D(C  19,N  26,C   7,H  45)     14.72 -0.000201   -0.78     13.94   
[...]
  H    -1.001817    3.857262    4.799409
  H    -0.372956    0.672538   -1.051684

----------------------------
CARTESIAN COORDINATES (A.U.)
----------------------------
  NO LB    ZA    FRAG    MASS        X           Y           Z
   0 C   6.0000    0    12.011   -3.041802   -3.124549   -0.033941
   1 C   6.0000    0    12.011   -3.323943   -3.541125   -4.533242
   2 C   6.0000    0    12.011   -3.449870   -5.689780    0.233147
   3 C   6.0000    0    12.011   -3.724956   -6.111661   -4.263581
   4 C   6.0000    0    12.011   -3.799104   -7.190194   -1.883200
   5 C   6.0000    0    12.011   -2.992974   -2.029895   -2.420949
   6 O   8.0000    0    15.999   -2.779280    1.696388   -5.118585
   7 C   6.0000    0    12.011   -2.622149    0.816421   -2.655139
   8 C   6.0000    0    12.011   -1.501876    5.099247    0.786859
   9 C   6.0000    0    12.011   -3.843908    4.720474    5.396290
  10 C   6.0000    0    12.011   -8.161899    1.557661    6.049318
  11 C   6.0000    0    12.011    1.716040    8.144871    2.456287
  12 C   6.0000    0    12.011   -0.758033    7.701035    7.405828
  13 C   6.0000    0    12.011   -0.549203    6.474471    2.816980
  14 C   6.0000    0    12.011   -1.725354    6.272048    5.152117
  15 O   8.0000    0    15.999   -7.564590    0.487094   -5.250423
  16 O   8.0000    0    15.999  -13.707667   -2.141344    0.070734
  17 C   6.0000    0    12.011   -8.250218    0.301007   -2.996743
  18 C   6.0000    0    12.011  -11.648900   -1.098976   -0.085914
  19 C   6.0000    0    12.011   -3.565319    3.498359    1.029743
  20 C   6.0000    0    12.011   -4.794782    3.330067    3.390427
  21 N   7.0000    0    14.007   -6.865464    1.735583    3.663672
  22 C   6.0000    0    12.011   -6.897413    1.048276   -0.813625
  23 C   6.0000    0    12.011   -8.078872    0.817959    1.516164
  24 N   7.0000    0    14.007  -10.575585   -0.748722   -2.481949
  25 N   7.0000    0    14.007  -10.332901   -0.214692    1.884672
  26 N   7.0000    0    14.007   -4.413809    2.087636   -0.999583
  27 H   1.0000    0     1.008   -4.594221    1.433455   -5.578147
  28 H   1.0000    0     1.008   -2.780425   -1.953014    1.620012
  29 H   1.0000    0     1.008   -3.290538   -2.681834   -6.382373
  30 H   1.0000    0     1.008   -3.512175   -6.520468    2.098759
  31 H   1.0000    0     1.008   -3.999363   -7.274947   -5.921461
  32 H   1.0000    0     1.008   -4.136274   -9.195074   -1.672502
  33 H   1.0000    0     1.008  -11.592828   -1.351900   -3.984881
  34 H   1.0000    0     1.008   -9.752601    0.289327    5.746375
  35 H   1.0000    0     1.008   -6.898882    0.790595    7.493250
  36 H   1.0000    0     1.008   -8.873498    3.398713    6.671660
  37 H   1.0000    0     1.008   -0.614766    5.274555   -1.042434
  38 H   1.0000    0     1.008   -4.723852    4.584767    7.230423
  39 H   1.0000    0     1.008    1.267631   10.099887    2.931102
  40 H   1.0000    0     1.008    3.269901    7.547348    3.672978
  41 H   1.0000    0     1.008    2.355107    8.079222    0.504528
  42 H   1.0000    0     1.008    1.199154    7.195475    7.811396
  43 H   1.0000    0     1.008   -0.818475    9.733579    7.065897
  44 H   1.0000    0     1.008   -1.893160    7.289169    9.069568
  45 H   1.0000    0     1.008   -0.704786    1.270912   -1.987394

      -----------------------------------------------------------      
     |                   =====================                   |     
     |                           x T B                           |     
     |                   =====================                   |     
     |                         S. Grimme                         |     
     |          Mulliken Center for Theoretical Chemistry        |     
     |                    University of Bonn                     |     
      -----------------------------------------------------------      

   * xtb version 6.7.1 (edcfbbe) compiled by 'albert@albert-system' on 2024-07-22

   xtb is free software: you can redistribute it and/or modify it under
   the terms of the GNU Lesser General Public License as published by
   the Free Software Foundation, either version 3 of the License, or
   (at your option) any later version.
   
   xtb is distributed in the hope that it will be useful,
   but WITHOUT ANY WARRANTY; without even the implied warranty of
   MERCHANTABILITY or FITNESS FOR A PARTICULAR PURPOSE.  See the
   GNU Lesser General Public License for more details.
   
   Cite this work as:
   * C. Bannwarth, E. Caldeweyher, S. Ehlert, A. Hansen, P. Pracht,
     J. Seibert, S. Spicher, S. Grimme, WIREs Comput. Mol. Sci., 2020, 11,
     e01493. DOI: 10.1002/wcms.1493
   
   for GFN2-xTB:
   * C. Bannwarth, S. Ehlert and S. Grimme., J. Chem. Theory Comput., 2019,
     15, 1652-1671. DOI: 10.1021/acs.jctc.8b01176
   for GFN1-xTB:
   * S. Grimme, C. Bannwarth, P. Shushkov, J. Chem. Theory Comput., 2017,
     13, 1989-2009. DOI: 10.1021/acs.jctc.7b00118
   for GFN0-xTB:
   * P. Pracht, E. Caldeweyher, S. Ehlert, S. Grimme, ChemRxiv, 2019, preprint.
     DOI: 10.26434/chemrxiv.8326202.v1
   for GFN-FF:
   * S. Spicher and S. Grimme, Angew. Chem. Int. Ed., 2020, 59, 15665-15673.
     DOI: 10.1002/anie.202004239
   
   for ALPB and GBSA implicit solvation:
   * S. Ehlert, M. Stahn, S. Spicher, S. Grimme, J. Chem. Theory Comput.,
     2021, 17, 4250-4261. DOI: 10.1021/acs.jctc.1c00471
   
   for ddCOSMO and CPCM-X implicit solvation:
   * M. Stahn, S. Ehlert, S. Grimme, J. Phys. Chem. A,
     2023, XX, XXXX-XXXX. DOI: 10.1021/acs.jpca.3c04382
   
   for DFT-D4:
   * E. Caldeweyher, C. Bannwarth and S. Grimme, J. Chem. Phys., 2017,
     147, 034112. DOI: 10.1063/1.4993215
   * E. Caldeweyher, S. Ehlert, A. Hansen, H. Neugebauer, S. Spicher,
     C. Bannwarth and S. Grimme, J. Chem. Phys., 2019, 150, 154122.
     DOI: 10.1063/1.5090222
   * E. Caldeweyher, J.-M. Mewes, S. Ehlert and S. Grimme, Phys. Chem. Chem. Phys.
     2020, 22, 8499-8512. DOI: 10.1039/D0CP00502A
   
   for sTDA-xTB:
   * S. Grimme and C. Bannwarth, J. Chem. Phys., 2016, 145, 054103.
     DOI: 10.1063/1.4959605
   
   in the mass-spec context:
   * V. Asgeirsson, C. Bauer and S. Grimme, Chem. Sci., 2017, 8, 4879.
     DOI: 10.1039/c7sc00601b
   * J. Koopman and S. Grimme, ACS Omega 2019, 4, 12, 15120-15133.
     DOI: 10.1021/acsomega.9b02011
   
   for metadynamics refer to:
   * S. Grimme, J. Chem. Theory Comput., 2019, 155, 2847-2862
     DOI: 10.1021/acs.jctc.9b00143
   
   for SPH calculations refer to:
   * S. Spicher and S. Grimme, J. Chem. Theory Comput., 2021, 17, 1701-1714
     DOI: 10.1021/acs.jctc.0c01306
   
   for ONIOM refer to:
   * C. Plett, A. Katbashev, S. Ehlert, S. Grimme, M. Bursch,
     Phys. Chem. Chem. Phys., 2023, 25, 17860-17868. DOI: 10.1039/D3CP02178E
   
   for DIPRO refer to:
   * J. Kohn, N. Gildemeister, S. Grimme, D. Fazzi, A. Hansen,
     J. Chem. Phys., 2023, just accepted.
   
   for PTB refer to:
   * S. Grimme, M. Mueller, A. Hansen, J. Chem. Phys., 2023, 158, 124111.
     DOI: 10.1063/5.0137838
   
   with help from (in alphabetical order)
   P. Atkinson, C. Bannwarth, F. Bohle, G. Brandenburg, E. Caldeweyher
   M. Checinski, S. Dohm, S. Ehlert, S. Ehrlich, I. Gerasimov, C. Hölzer
   A. Katbashev, J. Kohn, J. Koopman, C. Lavigne, S. Lehtola, F. März, M. Müller,
   F. Musil, H. Neugebauer, J. Pisarek, C. Plett, P. Pracht, F. Pultar,
   J. Seibert, P. Shushkov, S. Spicher, M. Stahn, M. Steiner, T. Strunk,
   J. Stückrath, T. Rose, and J. Unsleber
   
 * started run on 2025/11/13 at 17:49:43.720     
   ID    Z sym.   atoms
    1    6 C      1-6, 8-15, 18-21, 23, 24
    2    8 O      7, 16, 17
    3    7 N      22, 25-27
    4    1 H      28-46

           -------------------------------------------------
          |                Calculation Setup                |
           -------------------------------------------------

          program call               : /home/mchrnwsk/orca_6_1_0/otool_xtb /home/mchrnwsk/prometheozyme/ingredients/lmo-mandalate/optimised/adduct_left_p/opt_XTB.xyz --grad -c -1 -u 0 -P 16 --namespace /home/mchrnwsk/prometheozyme/ingredients/lmo-mandalate/optimised/adduct_left_p/opt --input /home/mchrnwsk/prometheozyme/ingredients/lmo-mandalate/optimised/adduct_left_p/opt_XTB.input.tmp --acc 0.200000
          calculation namespace      : /home/mchrnwsk/prometheozyme/ingredients/lmo-mandalate/optimised/adduct_left_p/opt
          coordinate file            : /home/mchrnwsk/prometheozyme/ingredients/lmo-mandalate/optimised/adduct_left_p/opt_XTB.xyz
          omp threads                :                    16


           -------------------------------------------------
          |                 G F N 2 - x T B                 |
           -------------------------------------------------

        Reference                      10.1021/acs.jctc.8b01176
      * Hamiltonian:
        H0-scaling (s, p, d)           1.850000    2.230000    2.230000
        zeta-weighting                 0.500000
      * Dispersion:
        s8                             2.700000
        a1                             0.520000
        a2                             5.000000
        s9                             5.000000
      * Repulsion:
        kExp                           1.500000    1.000000
        rExp                           1.000000
      * Coulomb:
        alpha                          2.000000
        third order                    shell-resolved
        anisotropic                    true
        a3                             3.000000
        a5                             4.000000
        cn-shift                       1.200000
        cn-exp                         4.000000
        max-rad                        5.000000

q/qsh data taken from xtbrestart
CAMM data taken from xtbrestart

          ...................................................
          :                      SETUP                      :
          :.................................................:
          :  # basis functions                 127          :
          :  # atomic orbitals                 127          :
          :  # shells                           73          :
          :  # electrons                       138          :
          :  max. iterations                   250          :
          :  Hamiltonian                  GFN2-xTB          :
          :  restarted?                       true          :
          :  GBSA solvation                  false          :
          :  PC potential                    false          :
          :  electronic temp.          300.0000000     K    :
          :  accuracy                    0.2000000          :
          :  -> integral cutoff          0.3198970E+02      :
          :  -> integral neglect         0.2000000E-08      :
          :  -> SCF convergence          0.2000000E-06 Eh   :
          :  -> wf. convergence          0.2000000E-04 e    :
          :  Broyden damping             0.4000000          :
          :  net charge                         -1          :
          :  unpaired electrons                  0          :
          ...................................................

 iter      E             dE          RMSdq      gap      omega  full diag
   1    -77.8490156 -0.778490E+02  0.301E-03    1.96       0.0  T
   2    -77.8490156 -0.280737E-07  0.178E-03    1.96       8.3  T
   3    -77.8490156  0.223437E-07  0.998E-04    1.96      14.8  T
   4    -77.8490156 -0.374010E-07  0.155E-04    1.96      95.0  T
   5    -77.8490156 -0.866208E-09  0.571E-05    1.96     258.2  T

   *** convergence criteria satisfied after 5 iterations ***

         #    Occupation            Energy/Eh            Energy/eV
      -------------------------------------------------------------
         1        2.0000           -0.5652640             -15.3816
       ...           ...                  ...                  ...
        63        2.0000           -0.2780105              -7.5651
        64        2.0000           -0.2737636              -7.4495
        65        2.0000           -0.2671995              -7.2709
        66        2.0000           -0.2529478              -6.8831
        67        2.0000           -0.2433813              -6.6227
        68        2.0000           -0.2385690              -6.4918
        69        2.0000           -0.1987089              -5.4071 (HOMO)
        70                         -0.1268321              -3.4513 (LUMO)
        71                         -0.1238929              -3.3713
        72                         -0.1128059              -3.0696
        73                         -0.1027847              -2.7969
        74                         -0.0794806              -2.1628
       ...                                ...                  ...
       127                          0.8075721              21.9752
      -------------------------------------------------------------
                  HL-Gap            0.0718768 Eh            1.9559 eV
             Fermi-level           -0.1627705 Eh           -4.4292 eV

 SCC (total)                   0 d,  0 h,  0 min,  0.036 sec
 SCC setup                      ...        0 min,  0.000 sec (  0.722%)
 Dispersion                     ...        0 min,  0.001 sec (  2.092%)
 classical contributions        ...        0 min,  0.000 sec (  0.103%)
 integral evaluation            ...        0 min,  0.003 sec (  9.020%)
 iterations                     ...        0 min,  0.026 sec ( 72.400%)
 molecular gradient             ...        0 min,  0.005 sec ( 14.700%)
 printout                       ...        0 min,  0.000 sec (  0.869%)

         :::::::::::::::::::::::::::::::::::::::::::::::::::::
         ::                     SUMMARY                     ::
         :::::::::::::::::::::::::::::::::::::::::::::::::::::
         :: total energy             -76.762298591764 Eh    ::
         :: gradient norm              0.000330478788 Eh/a0 ::
         :: HOMO-LUMO gap              1.955867325717 eV    ::
         ::.................................................::
         :: SCC energy               -77.847870960103 Eh    ::
         :: -> isotropic ES            0.211468955574 Eh    ::
         :: -> anisotropic ES          0.006012287462 Eh    ::
         :: -> anisotropic XC          0.023576655323 Eh    ::
         :: -> dispersion             -0.061189614256 Eh    ::
         :: repulsion energy           1.085572368340 Eh    ::
         :: add. restraining           0.000000000000 Eh    ::
         :: total charge              -1.000000000000 e     ::
         :::::::::::::::::::::::::::::::::::::::::::::::::::::


Property printout bound to 'properties.out'

           -------------------------------------------------
          | TOTAL ENERGY              -76.762298591764 Eh   |
          | GRADIENT NORM               0.000330478788 Eh/α |
          | HOMO-LUMO GAP               1.955867325717 eV   |
           -------------------------------------------------

------------------------------------------------------------------------
 * finished run on 2025/11/13 at 17:49:43.771     
------------------------------------------------------------------------
 total:
 * wall-time:     0 d,  0 h,  0 min,  0.051 sec
 *  cpu-time:     0 d,  0 h,  0 min,  0.766 sec
 * ratio c/w:    15.089 speedup
 SCF:
 * wall-time:     0 d,  0 h,  0 min,  0.036 sec
 *  cpu-time:     0 d,  0 h,  0 min,  0.573 sec
 * ratio c/w:    15.863 speedup


-------------------------   --------------------
FINAL SINGLE POINT ENERGY       -76.762298591760
-------------------------   --------------------


-------------
DIPOLE MOMENT
-------------
                                X             Y             Z
Total Dipole Moment    :      8.53100      -0.26700       1.46900
                        -----------------------------------------
Magnitude (a.u.)       :      8.66067
Magnitude (Debye)      :     22.01367

                                *** OPTIMIZATION RUN DONE ***


--------------------------------
SUGGESTED CITATIONS FOR THIS RUN
--------------------------------

Below you find a list of papers that are relevant to this ORCA run
We neither can nor want to force you to cite these papers, but we appreciate if you do
You receive ORCA, which is the product of decades of hard work by many enthusiastic individuals, for free
The only thing we kindly ask in return is that you cite our papers,
We deeply appreciate it, if you show your appreciation for ORCA by not just citing the generic ORCA reference.

Please note that relegating all ORCA citations to the supporting information does *not* help us.
SI sections are not indexed - citations you put there will not count into any citation statistics
But we need these citations in order to attract the funding resources that allow us to do what we are doing

Therefore, if you are a happy ORCA user, please consider citing a few of the papers listed below in the main body of your paper

In addition to the list printed below, the program has created the file /home/mchrnwsk/prometheozyme/ingredients/lmo-mandalate/optimised/adduct_left_p/opt.bibtex that contains the list in bibtex format
You can import this file easily into all common literature databanks and citation aid programs


List of essential papers. We consider these as the minimum necessary citations

  1. Bannwarth, C.; Ehlert, S.; Grimme, S.
     GFN2-xTB—An Accurate and Broadly Parametrized Self-Consistent Tight-Binding Quantum Chemical Method with Multipole Electrostatics and Density-Dependent Dispersion Contributions
     J. Chem. Theory Comput. 2019 15(3), 1652-1671
     doi.org/10.1021/acs.jctc.8b01176
  2. Neese, F.
     Software update: the ORCA program system, version 6.0
     WIRES Comput. Molec. Sci. 2025 15(1), e70019
     doi.org/10.1002/wcms.7019

List of papers to cite with high priority. The work reported in these papers was absolutely
necessary for this run to complete.
Our perspective: the developers of density functionals and basis sets usually get cited in chemistry papers
Good! But without the algorithms to do something with them, the functionals or basis sets would not do anything.
Hence, in our opinion, the algorithm design and method developments papers are equally worthy of getting cited

  1. Bannwarth, C.; Caldeweyher, E.; Ehlert, S.; Hansen, A.; Pracht, P.; Seibert, J.; Spicher, S.; Grimme, S.
     Extended tight-binding quantum chemistry methods
     WIRES Comput. Molec. Sci. 2020 11(2), e1493
     doi.org/10.1002/wcms.1493

List of suggested additional citations. These are papers that are important in the 'surrounding' of 
of this run, or papers that preceded the highly important papers. If you like your results we are grateful for a citation.

  1. Neese, F.
     The ORCA program system
     WIRES Comput. Molec. Sci. 2012 2(1), 73-78
     doi.org/10.1002/wcms.81
  2. Neese, F.
     Software update: the ORCA program system, version 4.0
     WIRES Comput. Molec. Sci. 2018 8(1), 1-6
     doi.org/10.1002/wcms.1327
  3. Neese, F.; Wennmohs, F.; Becker, U.; Riplinger, C.
     The ORCA quantum chemistry program package
     J. Chem. Phys. 2020 152(22), 224108
     doi.org/10.1063/5.0004608
  4. Neese, F.
     Software update: The ORCA program system—Version 5.0
     WIRES Comput. Molec. Sci. 2022 12(1), e1606
     doi.org/10.1002/wcms.1606

List of optional additional citations

  1. Neese, F.
     Approximate second-order SCF convergence for spin unrestricted wavefunctions
     Chem. Phys. Lett. 2000 325(1-3), 93-98
     doi.org/10.1016/s0009-2614(00)00662-x

Timings for individual modules:

Sum of individual times          ...        1.133 sec (=   0.019 min)
Geometry relaxation              ...        0.223 sec (=   0.004 min)  19.7 %
XTB module                       ...        0.910 sec (=   0.015 min)  80.3 %
                             ****ORCA TERMINATED NORMALLY****
TOTAL RUN TIME: 0 days 0 hours 0 minutes 1 seconds 867 msec
