26
	Energy:    -146.4111348
Nx         2.46246        1.81134       -0.27114
Cx         2.27794        0.50154        0.36079
Cx         3.51123       -0.34976        0.05683
Ox         3.46493       -1.46155       -0.46419
C          0.99899       -0.20464       -0.11460
C         -0.29565        0.50950        0.28005
C         -1.51406       -0.31064       -0.14396
N         -2.76555        0.37930        0.20270
C         -3.98986       -0.09447       -0.08249
N         -4.16896       -1.26311       -0.70268
N         -5.06684        0.61901        0.26010
H          2.24871        0.63168        1.44838
H          2.46850        1.71594       -1.28815
H          1.70004        2.44338       -0.03968
H          1.02655       -0.33024       -1.20560
H          0.97871       -1.21923        0.30554
H         -0.32256        0.66859        1.36470
H         -0.34910        1.49890       -0.18799
H         -1.49707       -0.46129       -1.22860
H         -1.50565       -1.27863        0.36820
H         -2.71250        1.26938        0.68235
H         -3.38491       -1.84132       -0.97548
H         -5.09180       -1.61700       -0.91750
H         -6.00242        0.28959        0.05752
H         -4.99110        1.51186        0.73014
H          4.47598        0.08645        0.37108
