15
	Energy:       3.2277871
Nx         0.45793        1.71720       -0.10190
Cx         0.44346        0.29752        0.29966
Cx         1.83221       -0.27329        0.03041
Ox         2.04820       -1.33658       -0.54541
C         -0.63116       -0.52065       -0.41972
C         -2.01319       -0.17142        0.04833
O         -2.32726        0.71311        0.82691
O         -2.95379       -0.94385       -0.52849
H          0.29914        0.24987        1.38555
H          0.44834        1.79258       -1.12012
H         -0.41743        2.14755        0.21366
H         -0.57469       -0.36943       -1.50403
H         -0.48244       -1.58827       -0.21611
H         -3.80385       -0.61476       -0.16759
H          2.67031        0.31711        0.44177
