17
	Energy:      36.1280379
Nx         1.26969        1.87271       -0.02262
Cx         1.10501        0.50824        0.51249
Cx         2.32324       -0.33374        0.13910
Ox         2.71376       -1.30895        0.76958
C         -0.15644       -0.16631       -0.03221
C         -1.44423        0.53217        0.40097
C         -2.72411       -0.14878       -0.08865
O         -2.57958       -1.07490       -0.93351
O         -3.78580        0.31791        0.41499
H          1.06791        0.56646        1.60568
H          2.20098        2.23119        0.16479
H          1.10749        1.87346       -1.02852
H         -0.10859       -0.21715       -1.12865
H         -0.18144       -1.20939        0.31155
H         -1.48187        0.57983        1.49631
H         -1.46236        1.56190        0.02531
H          2.83529       -0.04325       -0.79599
