19
	Energy:       2.7352099
Nx         1.24291        1.90182       -0.19892
Cx         1.13301        0.56262        0.40417
Cx         2.40574       -0.21256        0.06097
Ox         2.44710       -1.41530       -0.18345
C         -0.12476       -0.18084       -0.06160
C         -1.42388        0.47751        0.40564
C         -2.64613       -0.26655       -0.08787
N         -3.83038        0.26880        0.32662
O         -2.62171       -1.25310       -0.81079
H          1.12735        0.67541        1.49427
H          1.11867        1.82797       -1.21085
H          0.48385        2.49599        0.13057
H         -0.12293       -0.26720       -1.15679
H         -0.09951       -1.21222        0.31498
H         -1.45401        0.50384        1.50110
H         -1.49362        1.50537        0.03377
H         -3.89774        1.05272        0.95929
H         -4.68017       -0.19727        0.03469
H          3.34261        0.36826        0.13141
