23
	Energy:      55.9669836
Nx        -1.67381        1.55574       -0.87693
Cx        -1.72138        0.13657       -0.47597
Cx        -3.16182       -0.25154       -0.17317
Ox        -3.66509       -1.32020       -0.50854
C         -0.87701       -0.15343        0.77492
C          0.60933       -0.17154        0.50643
C          1.38348        0.98254        0.69159
C          2.75750        0.96399        0.44059
C          3.35648       -0.21072       -0.00161
C          2.60439       -1.36155       -0.20032
C          1.23172       -1.34315        0.05126
O          4.69469       -0.27362       -0.25616
H         -1.38268       -0.47392       -1.32109
H         -2.24226        1.69929       -1.71151
H         -2.03865        2.16085       -0.14466
H         -1.10106        0.57297        1.56838
H         -1.16059       -1.12594        1.20131
H          0.91708        1.90642        1.02558
H          3.33586        1.86958        0.59107
H          3.08444       -2.27040       -0.55135
H          0.65284       -2.24977       -0.11054
H          5.08252        0.59808       -0.07618
H         -3.73200        0.46134        0.44778
