
                                 *****************
                                 * O   R   C   A *
                                 *****************

                                            #,                                       
                                            ###                                      
                                            ####                                     
                                            #####                                    
                                            ######                                   
                                           ########,                                 
                                     ,,################,,,,,                         
                               ,,#################################,,                 
                          ,,##########################################,,             
                       ,#########################################, ''#####,          
                    ,#############################################,,   '####,        
                  ,##################################################,,,,####,       
                ,###########''''           ''''###############################       
              ,#####''   ,,,,##########,,,,          '''####'''          '####       
            ,##' ,,,,###########################,,,                        '##       
           ' ,,###''''                  '''############,,,                           
         ,,##''                                '''############,,,,        ,,,,,,###''
      ,#''                                            '''#######################'''  
     '                                                          ''''####''''         
             ,#######,   #######,   ,#######,      ##                                
            ,#'     '#,  ##    ##  ,#'     '#,    #''#        ,####,    ,#,          
            ##       ##  ##   ,#'  ##            #'  '#       #'       ,# #          
            ##       ##  #######   ##           ,######,      #####,      #          
            '#,     ,#'  ##    ##  '#,     ,#' ,#      #,     #,   #      #          
             '#######'   ##     ##  '#######'  #'      '#     '####' #    #          



                #########################################################
                #                        -***-                          #
                #          Department of theory and spectroscopy        #
                #                                                       #
                #                      Frank Neese                      #
                #                                                       #
                #     Directorship, Architecture, Infrastructure        #
                #                    SHARK, DRIVERS                     #
                #        Core code/Algorithms in most modules           #
                #                                                       #
                #        Max Planck Institute fuer Kohlenforschung      #
                #                Kaiser Wilhelm Platz 1                 #
                #                 D-45470 Muelheim/Ruhr                 #
                #                      Germany                          #
                #                                                       #
                #                  All rights reserved                  #
                #                        -***-                          #
                #########################################################


                         Program Version 6.1.0  -  RELEASE   -
                                (GIT: $679e74b$)
                          ($2025-06-10 18:02:51 +0200$)


 With contributions from (in alphabetic order):
[Max-Planck-Institut fuer Kohlenforschung]                               
  Daniel Aravena         : Magnetic Suceptibility                        
  Michael Atanasov       : Ab Initio Ligand Field Theory (pilot matlab implementation)
  Alexander A. Auer      : GIAO ZORA, VPT2 properties, NMR spectrum      
  Ute Becker             : All parallelization in ORCA, NUMFREQ, NUMCALC 
  Giovanni Bistoni       : ED, misc. LED, open-shell LED, HFLD           
  Dmytro Bykov           : pre 5.0 version of the SCF Hessian            
  Marcos Casanova-Páez   : Triplet and SCS-CIS(D). UHF-(DLPNO)-IP/EA/STEOM-CCSD. UHF-CVS-IP/STEOM-CCSD   
  Vijay G. Chilkuri      : MRCI spin determinant printing, contributions to CSF-ICE 
  Pauline Colinet        : FMM embedding                                 
  Dipayan Datta          : RHF DLPNO-CCSD density                        
  Achintya Kumar Dutta   : EOM-CC, STEOM-CC                              
  Nicolas Foglia         : Exact transition moments, OPA infrastructure, MCD improvements    
  Dmitry Ganyushin       : Spin-Orbit,Spin-Spin,Magnetic field MRCI      
  Miquel Garcia-Rates    : C-PCM and meta-GGA Hessian, CCSD/C-PCM, Gaussian charge scheme 
  Tiago L. C. Gouveia    : GS-ROHF, GS-ROCIS                             
  Yang Guo               : DLPNO-NEVPT2, F12-NEVPT2, CIM, IAO-localization        
  Andreas Hansen         : Spin unrestricted coupled pair/coupled cluster methods 
  Ingolf Harden          : AUTO-CI MPn and infrastructure                
  Benjamin Helmich-Paris : MC-RPA, TRAH-(SCF,CASSCF), AVAS, COSX integrals, SCF dyn. polar., MC-PDFT, srDFT 
  Lee Huntington         : MR-EOM, pCC                                   
  Robert Izsak           : Overlap fitted RIJCOSX, COSX-SCS-MP3, EOM     
  Riya Kayal             : Wick's Theorem for AUTO-CI, AUTO-CI UHF-CCSDT 
  Emily Kempfer          : AUTO-CI RHF CISDT and CCSDT, approximate NEVPT4
  Christian Kollmar      : KDIIS, OOCD, Brueckner-CCSD(T), CCSD density, CASPT2, CASPT2-K, improved NEVPT2 
  Axel Koslowski         : Symmetry handling                             
  Simone Kossmann        : meta-GGA functionals, TD-DFT gradient, OOMP2, (MP2 Hessian; deprecated post 5.0) 
  Lucas Lang             : DCDCAS, Hyperfine gauge corrections, ICE-SOC+SSC
  Marvin Lechner         : AUTO-CI (C++ implementation), FIC-MRCC        
  Spencer Leger          : CASSCF response                               
  Dagmar Lenk            : GEPOL surface, SMD, ORCA-2-JSON               
  Dimitrios Liakos       : Extrapolation schemes; Compound Job, Property file
  Dimitrios Manganas     : Further ROCIS development; embedding schemes. LFT, Crystal Embedding 
  Dimitrios Pantazis     : SARC Basis sets                               
  Anastasios Papadopoulos: AUTO-CI, single reference methods and gradients 
  Taras Petrenko         : pre 6.0 DFT Hessian and TD-DFT gradient,  ECA, NRVS 
  Petra Pikulova         : Analytic Raman intensities                    
  Peter Pinski           : DLPNO-MP2, DLPNO-MP2 Gradient                 
  Shashank Vittal Rao    : ES-AILFT, MagRelax                            
  Christoph Reimann      : Effective Core Potentials                     
  Marius Retegan         : Local ZFS, SOC                                
  Christoph Riplinger    : Optimizer, TS searches, QM/MM, DLPNO-CCSD(T), (RO)-DLPNO pert. Triples 
  Michael Roemelt        : Original ROCIS implementation, recursive CI coupling coefficients
  Masaaki Saitow         : Open-shell DLPNO-CCSD energy and density      
  Barbara Sandhoefer     : DKH picture change effects                    
  Yorick L. A. Schmerwitz: GMF and freeze-and-release deltaSCF, NEB S-IDPP initial path                    
  Kantharuban Sivalingam : CASSCF convergence/infrastructure, NEVPT2, NEVPT3, NEVPT4(SD), FIC-MRCI and CEPA variants
  Bernardo de Souza      : ESD, SOC TD-DFT                               
  Georgi L. Stoychev     : AutoAux, RI-MP2 NMR, DLPNO-MP2 response, X2C  
  Van Anh Tran           : RI-MP2 g-tensors                              
  Willem Van den Heuvel  : Paramagnetic NMR                              
  Zikuan Wang            : NOTCH, Electric field optimization            
  Frank Wennmohs         : Technical directorship and infrastructure     
  Hang Xu                : AUTO-CI-Response properties                   
                                                                         
[FACCTs GmbH]                                                            
  Markus Bursch, Nicolas Foglia, Miquel Garcia-Rates, Ingolf Harden, Hagen Neugebauer, Anastasios Papadopoulos, 
  Christoph Riplinger, Bernardo de Souza, Georgi L. Stoychev                                                    
                                                                 
  APM, various basis sets, CI-OPT, improved COSX, DLPNO-Multilevel,           
  DOCKER, DRACO, updates on ESD, Fragmentator, GOAT, IRC, LR-CPCM, L-BFGS, MBIS, meta-GGA TD-DFT gradient, ML-optimized integration grids, 
  MM, NACMEs, nearIR, NEB, NEB-TS, NL-DFT gradient (VV10), 2- and 3-layer-ONIOM, interface openCOSMO-RS, QMMM,   
  Crystal-QMMM, RESP, rigid body optimization, SF, symmetry and pop. for TD-DFT, various functionals, SOLVATOR                                   
                                                                         
[Other institutions]                                                     
  V. Asgeirsson          : NEB                                           
  Christoph Bannwarth    : sTDA-DFT, sTD-DFT, PBEh-3c, B97-3c, D3        
  Giovanni Bistoni       : ETS/NOCV, ADLD/ADEX, COVALED                  
  Martin Brehm           : Molecular dynamics                            
  Ronald Cardenas        : ETS/NOCV                                      
  Martina Colucci        : COVALED                                       
  Sebastian Ehlert       : rSCAN, r2SCAN, r2SCAN-3c, D4, dhf basis sets  
  Marvin Friede          : D4 for Fr, Ra, Ac-Lr                          
  Lars Goerigk           : TD-DFT with DH, B97 family of functionals     
  Stefan Grimme          : VdW corrections, initial TS optimization, DFT functionals, gCP, sTDA/sTD-DF 
  Waldemar Hujo          : DFT-NL                                        
  H. Jonsson             : NEB                                           
  Holger Kruse           : gCP                                           
  Marcel Mueller         : wB97X-3c, vDZP basis set                      
  Hagen Neugebauer       : wr2SCAN, Native XTB                           
  Gianluca Regni         : ADLD/ADEX                                     
  Tobias Risthaus        : pre 6.0 range-separated hybrid DFT and stability analysis
  Lukas Wittmann         : regularized MP2, r2SCAN double-hybrids, wr2SCAN        
                                                                         
We gratefully acknowledge several colleagues who have allowed us to      
interface, adapt or use parts of their codes:                            
  Ed Valeev, F. Pavosevic, A. Kumar             : LibInt (2-el integral package), F12 methods 
  Garnet Chan, S. Sharma, J. Yang, R. Olivares  : DMRG                   
  Ulf Ekstrom                                   : XCFun DFT Library      
  Mihaly Kallay                                 : mrcc  (arbitrary order and MRCC methods)
  Frank Weinhold                                : gennbo (NPA and NBO analysis)           
  Simon Mueller                                 : openCOSMO-RS                            
  Christopher J. Cramer and Donald G. Truhlar   : smd solvation model                     
  S Lehtola, MJT Oliveira, MAL Marques          : LibXC Library                           
  Liviu Ungur et al                             : ANISO software                          


 Your calculation uses the libint2 library for the computation of 2-el integrals
 For citations please refer to: http://libint.valeyev.net

 Your ORCA version has been built with support for libXC version: 7.0.0
 For citations please refer to: https://libxc.gitlab.io

 This ORCA versions uses:
   CBLAS   interface :  Fast vector & matrix operations
   LAPACKE interface :  Fast linear algebra routines
   SCALAPACK package :  Parallel linear algebra routines
   Shared memory     :  Shared parallel matrices
   BLAS/LAPACK       :  OpenBLAS 0.3.29  USE64BITINT DYNAMIC_ARCH NO_AFFINITY SkylakeX SINGLE_THREADED
        Core in use  :  SkylakeX
   Copyright (c) 2011-2014, The OpenBLAS Project


  ***********************************
  * Starting time: Thu Nov 13 17:50:25 2025
  * Host name:     glutamate
  * Process ID:    575290
  * Working dir.:  /home/mchrnwsk/prometheozyme
  ***********************************

Your calculation utilizes the semiempirical GFN2-xTB method
Please cite in your paper:
Bannwarth, C.; Ehlert S.; Grimme, S. J. Chem. Theory Comput. 2019, 15, 1652.
   

================================================================================

================================================================================
                                        WARNINGS
                       Please study these warnings very carefully!
================================================================================


WARNING: Geometry Optimization
  ===> : Switching off AutoStart
         For restart on a previous wavefunction, please use MOREAD

WARNING: Found dipole moment calculation with XTB calculation
  ===> : Switching off dipole moment calculation


================================================================================
                                       INPUT FILE
================================================================================
NAME = /home/mchrnwsk/prometheozyme/ingredients/lmo-mandalate/optimised/adduct_right_d/opt.inp
|  1> !XTB2 OPT
|  2> !PAL16
|  3> * xyz -2 1 /home/mchrnwsk/prometheozyme/ingredients/lmo-mandalate/optimised/adduct_left_d/adduct_d.xyz
|  4> O         -1.60696        1.01130       -2.58647
|  5> C         -1.35312        0.41549       -1.31541
|  6> C         -0.83830        2.79434        0.51376
|  7> C         -2.08086        2.72150        2.97204
|  8> C         -4.41490        1.12646        3.41189
|  9> C          0.91637        4.39316        1.31377
| 10> C         -0.45249        4.35866        3.96207
| 11> C         -0.31704        3.57137        1.55932
| 12> C         -0.94893        3.53754        2.80628
| 13> O         -3.85389       -0.26764       -2.45980
| 14> O         -7.31937       -1.15473        0.26029
| 15> C         -4.30847       -0.22755       -1.31398
| 16> C         -6.18901       -0.66692        0.18883
| 17> C         -1.88773        1.87710        0.69522
| 18> C         -2.57584        1.88990        1.94381
| 19> N         -3.74110        1.07353        2.11140
| 20> C         -3.58373        0.41460       -0.16989
| 21> C         -4.31270        0.44423        0.97497
| 22> N         -5.53601       -0.74729       -1.01839
| 23> N         -5.55624       -0.06314        1.19159
| 24> N         -2.29617        0.97299       -0.32071
| 25> H         -6.06080       -1.16372       -1.76491
| 26> H         -5.21720        0.38938        3.52328
| 27> H         -3.71457        0.89738        4.22354
| 28> H         -4.85786        2.11525        3.57863
| 29> H         -0.39814        2.90481       -0.47123
| 30> H         -2.57913        2.74488        3.93499
| 31> H          0.69742        5.45890        1.42327
| 32> H          1.70537        4.10663        2.01762
| 33> H          1.31481        4.23234        0.30610
| 34> H          0.55373        4.03839        4.25040
| 35> H         -0.43540        5.42013        3.69539
| 36> H         -1.09783        4.25232        4.84042
| 37> H          0.04085       -0.66411        0.81340
| 38> C          0.69269       -0.12523        0.12716
| 39> C          0.15181        0.48018       -1.02013
| 40> C          1.03229        1.17345       -1.87738
| 41> H          0.64747        1.65132       -2.77689
| 42> C          2.38518        1.31644       -1.56758
| 43> H          3.02932        1.89226       -2.22576
| 44> C          2.89282        0.74306       -0.40655
| 45> H          3.94109        0.87091       -0.15317
| 46> C          2.05122        0.01402        0.43376
| 47> H          2.44624       -0.42819        1.34418
| 48> H         -1.54782       -0.66163       -1.42448
| 49> **                         ****END OF INPUT****
================================================================================

                       *****************************
                       * Geometry Optimization Run *
                       *****************************

Geometry optimization settings:
Update method            Update   .... BFGS
Choice of coordinates    CoordSys .... (2022) Redundant Internals
Initial Hessian          InHess   .... Almloef's Model
Max. no of cycles        MaxIter  .... 135

Convergence Tolerances:
Energy Change            TolE     ....  5.0000e-06 Eh
Max. Gradient            TolMAXG  ....  3.0000e-04 Eh/bohr
RMS Gradient             TolRMSG  ....  1.0000e-04 Eh/bohr
Max. Displacement        TolMAXD  ....  4.0000e-03 bohr
RMS Displacement         TolRMSD  ....  2.0000e-03 bohr
Strict Convergence                .... False

------------------------------------------------------------------------------
                        ORCA OPTIMIZATION COORDINATE SETUP
------------------------------------------------------------------------------

The optimization will be done in redundant internal coordinates (2022)
Making redundant internal coordinates   ...  (2022 redundants) done
Evaluating the initial hessian          ...  (Almloef) done
Evaluating the coordinates              ...  done
Calculating the B-matrix                .... done
Calculating the G-matrix                .... done
The number of degrees of freedom        ....  240

    -----------------------------------------------------------------
                    Redundant Internal Coordinates


    -----------------------------------------------------------------
         Definition                    Initial Value    Approx d2E/dq
    -----------------------------------------------------------------
      1. B(C   1,O   0)                  1.4265         0.489302   
      2. B(C   7,C   5)                  1.5023         0.413577   
      3. B(C   7,C   2)                  1.4031         0.595445   
      4. B(C   8,C   7)                  1.3983         0.605957   
      5. B(C   8,C   3)                  1.4052         0.590806   
      6. B(C   8,C   6)                  1.5022         0.413775   
      7. B(C  11,O   9)                  1.2334         0.994946   
      8. B(C  12,O  10)                  1.2332         0.995502   
      9. B(C  13,C   2)                  1.4055         0.590113   
     10. B(C  14,C   3)                  1.4120         0.576230   
     11. B(C  14,C  13)                  1.4257         0.547990   
     12. B(N  15,C  14)                  1.4326         0.478510   
     13. B(N  15,C   4)                  1.4656         0.423845   
     14. B(C  16,C  11)                  1.4988         0.418869   
     15. B(C  17,N  15)                  1.4192         0.502618   
     16. B(C  17,C  16)                  1.3576         0.703863   
     17. B(N  18,C  12)                  1.3749         0.591596   
     18. B(N  18,C  11)                  1.3654         0.612491   
     19. B(N  19,C  17)                  1.3604         0.623835   
     20. B(N  19,C  12)                  1.3306         0.696076   
     21. B(N  20,C  16)                  1.4115         0.517082   
     22. B(N  20,C  13)                  1.4200         0.501233   
     23. B(N  20,C   1)                  1.4797         0.402466   
     24. B(H  21,N  18)                  1.0031         0.443897   
     25. B(H  22,C   4)                  1.0952         0.353336   
     26. B(H  23,C   4)                  1.0962         0.351955   
     27. B(H  24,C   4)                  1.0962         0.351951   
     28. B(H  25,C   2)                  1.0845         0.367444   
     29. B(H  26,C   3)                  1.0845         0.367480   
     30. B(H  27,C   5)                  1.0935         0.355506   
     31. B(H  28,C   5)                  1.0955         0.352953   
     32. B(H  29,C   5)                  1.0955         0.352959   
     33. B(H  30,C   6)                  1.0946         0.354044   
     34. B(H  31,C   6)                  1.0946         0.354078   
     35. B(H  32,C   6)                  1.0951         0.353400   
     36. B(C  34,H  33)                  1.0891         0.361248   
     37. B(C  35,C  34)                  1.4055         0.590278   
     38. B(C  35,C   1)                  1.5350         0.366791   
     39. B(C  36,C  35)                  1.4109         0.578540   
     40. B(H  37,C  36)                  1.0888         0.361643   
     41. B(C  38,C  36)                  1.3953         0.612853   
     42. B(H  39,C  38)                  1.0861         0.365251   
     43. B(C  40,C  38)                  1.3908         0.622857   
     44. B(H  41,H  29)                  4.2904         0.010000   
     45. B(H  41,C  40)                  1.0860         0.365418   
     46. B(C  42,C  40)                  1.3950         0.613517   
     47. B(C  42,C  34)                  1.3996         0.603053   
     48. B(H  43,C  42)                  1.0865         0.364777   
     49. B(H  44,C   1)                  1.1000         0.347116   
     50. A(O   0,C   1,N  20)          109.1591         0.380729   
     51. A(C  35,C   1,H  44)          103.5254         0.321405   
     52. A(N  20,C   1,C  35)          118.6622         0.364575   
     53. A(N  20,C   1,H  44)          108.8307         0.324386   
     54. A(O   0,C   1,C  35)          109.1629         0.377034   
     55. A(O   0,C   1,H  44)          106.8060         0.335028   
     56. A(C   7,C   2,H  25)          118.0090         0.351704   
     57. A(C   7,C   2,C  13)          122.8591         0.427122   
     58. A(C  13,C   2,H  25)          119.1279         0.351170   
     59. A(C   8,C   3,H  26)          117.5369         0.351245   
     60. A(C  14,C   3,H  26)          119.8829         0.349766   
     61. A(C   8,C   3,C  14)          122.5802         0.424710   
     62. A(N  15,C   4,H  24)          110.6896         0.327907   
     63. A(H  22,C   4,H  24)          107.1923         0.288936   
     64. A(H  22,C   4,H  23)          104.5997         0.288937   
     65. A(H  23,C   4,H  24)          109.5128         0.288759   
     66. A(N  15,C   4,H  22)          113.7495         0.328119   
     67. A(N  15,C   4,H  23)          110.8380         0.327907   
     68. A(C   7,C   5,H  29)          111.6332         0.328710   
     69. A(H  27,C   5,H  28)          109.5602         0.289343   
     70. A(C   7,C   5,H  28)          110.0739         0.328710   
     71. A(C   7,C   5,H  27)          110.6327         0.329101   
     72. A(H  27,C   5,H  29)          107.9401         0.289343   
     73. A(H  28,C   5,H  29)          106.8976         0.289017   
     74. A(H  30,C   6,H  31)          109.4848         0.289300   
     75. A(C   8,C   6,H  30)          110.2750         0.328903   
     76. A(C   8,C   6,H  32)          111.6717         0.328804   
     77. A(H  30,C   6,H  32)          107.5791         0.289213   
     78. A(H  31,C   6,H  32)          107.3842         0.289218   
     79. A(C   8,C   6,H  31)          110.3519         0.328908   
     80. A(C   2,C   7,C   8)          118.8969         0.429156   
     81. A(C   5,C   7,C   8)          122.0049         0.402222   
     82. A(C   2,C   7,C   5)          119.0877         0.400984   
     83. A(C   6,C   8,C   7)          121.5709         0.402256   
     84. A(C   3,C   8,C   7)          118.8973         0.428554   
     85. A(C   3,C   8,C   6)          119.5300         0.400466   
     86. A(O   9,C  11,C  16)          123.0144         0.437543   
     87. A(C  16,C  11,N  18)          115.6289         0.401297   
     88. A(O   9,C  11,N  18)          121.3392         0.465720   
     89. A(N  18,C  12,N  19)          117.5411         0.433741   
     90. A(O  10,C  12,N  19)          124.8704         0.476836   
     91. A(O  10,C  12,N  18)          117.5878         0.462820   
     92. A(C  14,C  13,N  20)          119.5683         0.406158   
     93. A(C   2,C  13,N  20)          122.5406         0.411519   
     94. A(C   2,C  13,C  14)          117.8764         0.420826   
     95. A(C  13,C  14,N  15)          119.3345         0.402845   
     96. A(C   3,C  14,N  15)          122.3811         0.406434   
     97. A(C   3,C  14,C  13)          118.2831         0.419042   
     98. A(C   4,N  15,C  17)          122.7767         0.385966   
     99. A(C   4,N  15,C  14)          117.2040         0.382680   
    100. A(C  14,N  15,C  17)          119.1171         0.394233   
    101. A(C  11,C  16,C  17)          113.1678         0.413956   
    102. A(C  17,C  16,N  20)          124.8403         0.427019   
    103. A(C  11,C  16,N  20)          121.9377         0.389554   
    104. A(C  16,C  17,N  19)          128.0958         0.441688   
    105. A(N  15,C  17,N  19)          113.9550         0.413116   
    106. A(N  15,C  17,C  16)          117.9492         0.424856   
    107. A(C  11,N  18,C  12)          126.5007         0.423902   
    108. A(C  12,N  18,H  21)          115.4215         0.357368   
    109. A(C  11,N  18,H  21)          117.8576         0.359484   
    110. A(C  12,N  19,C  17)          118.9426         0.437906   
    111. A(C   1,N  20,C  13)          122.5144         0.382324   
    112. A(C  13,N  20,C  16)          115.9644         0.399442   
    113. A(C   1,N  20,C  16)          120.2738         0.384398   
    114. A(H  33,C  34,C  35)          119.8109         0.350179   
    115. A(C  35,C  34,C  42)          120.6303         0.428117   
    116. A(H  33,C  34,C  42)          119.4798         0.351448   
    117. A(C   1,C  35,C  34)          121.0763         0.392022   
    118. A(C  34,C  35,C  36)          117.8697         0.424946   
    119. A(C   1,C  35,C  36)          121.0409         0.390648   
    120. A(H  37,C  36,C  38)          118.7602         0.352472   
    121. A(C  35,C  36,C  38)          121.3686         0.427812   
    122. A(C  35,C  36,H  37)          119.8034         0.349058   
    123. A(H  39,C  38,C  40)          120.5277         0.354034   
    124. A(C  36,C  38,C  40)          119.8021         0.433520   
    125. A(C  36,C  38,H  39)          119.6586         0.353065   
    126. A(H  41,C  40,C  42)          120.2205         0.353157   
    127. A(C  38,C  40,C  42)          119.8748         0.433604   
    128. A(C  38,C  40,H  41)          119.9029         0.354062   
    129. A(C  40,C  42,H  43)          119.8766         0.353052   
    130. A(C  34,C  42,H  43)          119.7331         0.352026   
    131. A(C  34,C  42,C  40)          120.3733         0.431093   
    132. D(C   2,C   7,C   5,H  28)   -121.9755         0.012660   
    133. D(C   8,C   7,C   2,H  25)    174.1022         0.024422   
    134. D(C   8,C   7,C   2,C  13)     -6.6301         0.024422   
    135. D(C   2,C   7,C   5,H  29)     -3.4310         0.012660   
    136. D(C   5,C   7,C   2,C  13)    172.2169         0.024422   
    137. D(C   2,C   7,C   5,H  27)    116.7943         0.012660   
    138. D(C   8,C   7,C   5,H  27)    -64.3961         0.012660   
    139. D(C   5,C   7,C   2,H  25)     -7.0508         0.024422   
    140. D(C   8,C   7,C   5,H  28)     56.8341         0.012660   
    141. D(C   3,C   8,C   6,H  31)   -122.0619         0.012672   
    142. D(C   7,C   8,C   3,C  14)      2.6586         0.024024   
    143. D(C   3,C   8,C   6,H  30)    116.8540         0.012672   
    144. D(C   7,C   8,C   3,H  26)   -177.3976         0.024024   
    145. D(C   3,C   8,C   7,C   5)   -178.5073         0.025340   
    146. D(C   7,C   8,C   6,H  31)     57.4437         0.012672   
    147. D(C   6,C   8,C   7,C   2)   -179.2042         0.025340   
    148. D(C   6,C   8,C   3,C  14)   -177.8225         0.024024   
    149. D(C   6,C   8,C   7,C   5)      1.9841         0.025340   
    150. D(C   7,C   8,C   6,H  30)    -63.6404         0.012672   
    151. D(C   3,C   8,C   7,C   2)      0.3045         0.025340   
    152. D(C   3,C   8,C   6,H  32)     -2.7009         0.012672   
    153. D(C   6,C   8,C   3,H  26)      2.1213         0.024024   
    154. D(C  14,C  13,C   2,C   7)      9.6794         0.023965   
    155. D(N  20,C  13,C   2,H  25)      7.5392         0.023965   
    156. D(N  20,C  13,C   2,C   7)   -171.7206         0.023965   
    157. D(C  14,C  13,C   2,H  25)   -171.0607         0.023965   
    158. D(N  15,C  14,C   3,H  26)      0.9403         0.022799   
    159. D(N  15,C  14,C   3,C   8)   -179.1172         0.022799   
    160. D(C  13,C  14,C   3,H  26)   -179.4730         0.022799   
    161. D(C   3,C  14,C  13,C   2)     -6.3865         0.020538   
    162. D(C  13,C  14,C   3,C   8)      0.4694         0.022799   
    163. D(N  15,C  14,C  13,N  20)     -5.4299         0.020538   
    164. D(N  15,C  14,C  13,C   2)    173.2131         0.020538   
    165. D(C   3,C  14,C  13,N  20)    174.9705         0.020538   
    166. D(C  17,N  15,C  14,C   3)    169.2443         0.018060   
    167. D(C   4,N  15,C  14,C  13)   -179.7726         0.018060   
    168. D(C   4,N  15,C  14,C   3)     -0.1901         0.018060   
    169. D(C  17,N  15,C   4,H  23)    135.9663         0.015317   
    170. D(C  14,N  15,C   4,H  24)     66.7038         0.015317   
    171. D(C  14,N  15,C   4,H  23)    -55.0170         0.015317   
    172. D(C  17,N  15,C   4,H  22)     18.4415         0.015317   
    173. D(C  17,N  15,C  14,C  13)    -10.3381         0.018060   
    174. D(C  14,N  15,C   4,H  22)   -172.5418         0.015317   
    175. D(N  20,C  16,C  11,N  18)    178.8565         0.012010   
    176. D(N  20,C  16,C  11,O   9)     -2.6485         0.012010   
    177. D(C  17,C  16,C  11,N  18)     -3.6992         0.012010   
    178. D(C  17,C  16,C  11,O   9)    174.7957         0.012010   
    179. D(N  19,C  17,C  16,N  20)    179.5928         0.034925   
    180. D(N  15,C  17,C  16,N  20)     -0.4491         0.034925   
    181. D(N  15,C  17,C  16,C  11)   -177.8065         0.034925   
    182. D(N  19,C  17,C  16,C  11)      2.2354         0.034925   
    183. D(N  19,C  17,N  15,C  14)   -166.7381         0.019979   
    184. D(N  19,C  17,N  15,C   4)      2.0780         0.019979   
    185. D(C  16,C  17,N  15,C  14)     13.2980         0.019979   
    186. D(C  16,C  17,N  15,C   4)   -177.8859         0.019979   
    187. D(H  21,N  18,C  12,O  10)      2.8990         0.028145   
    188. D(C  11,N  18,C  12,N  19)     -2.3534         0.028145   
    189. D(C  11,N  18,C  12,O  10)    177.3572         0.028145   
    190. D(H  21,N  18,C  11,C  16)    178.4285         0.030320   
    191. D(H  21,N  18,C  11,O   9)     -0.0939         0.030320   
    192. D(C  12,N  18,C  11,C  16)      4.0901         0.030320   
    193. D(H  21,N  18,C  12,N  19)   -176.8117         0.028145   
    194. D(C  12,N  18,C  11,O   9)   -174.4322         0.030320   
    195. D(C  12,N  19,C  17,C  16)     -0.5145         0.028578   
    196. D(C  12,N  19,C  17,N  15)    179.5261         0.028578   
    197. D(C  17,N  19,C  12,N  18)      0.2977         0.036245   
    198. D(C  17,N  19,C  12,O  10)   -179.3897         0.036245   
    199. D(C  13,N  20,C  16,C  17)    -14.9538         0.021188   
    200. D(C   1,N  20,C  16,C  17)    152.6056         0.021188   
    201. D(C   1,N  20,C  16,C  11)    -30.2575         0.021188   
    202. D(C  16,N  20,C  13,C  14)     17.3671         0.019865   
    203. D(C  16,N  20,C  13,C   2)   -161.2100         0.019865   
    204. D(C   1,N  20,C  13,C  14)   -149.8868         0.019865   
    205. D(C   1,N  20,C  13,C   2)     31.5361         0.019865   
    206. D(C  16,N  20,C   1,C  35)   -148.8646         0.013826   
    207. D(C  16,N  20,C   1,O   0)     85.2653         0.013826   
    208. D(C  13,N  20,C   1,H  44)    135.7629         0.013826   
    209. D(C  13,N  20,C  16,C  11)    162.1832         0.021188   
    210. D(C  13,N  20,C   1,C  35)     17.8568         0.013826   
    211. D(C  13,N  20,C   1,O   0)   -108.0133         0.013826   
    212. D(C  36,C  35,C  34,C  42)      2.9361         0.023979   
    213. D(C  36,C  35,C  34,H  33)    179.6863         0.023979   
    214. D(C   1,C  35,C  34,C  42)   -175.7589         0.023979   
    215. D(C   1,C  35,C  34,H  33)      0.9914         0.023979   
    216. D(C  36,C  35,C   1,N  20)   -119.8046         0.010087   
    217. D(C  36,C  35,C   1,O   0)      6.0636         0.010087   
    218. D(C  34,C  35,C   1,H  44)    -61.8037         0.010087   
    219. D(C  34,C  35,C   1,N  20)     58.8489         0.010087   
    220. D(C  34,C  35,C   1,O   0)   -175.2829         0.010087   
    221. D(C  38,C  36,C  35,C  34)     -3.2424         0.022990   
    222. D(C  38,C  36,C  35,C   1)    175.4531         0.022990   
    223. D(H  37,C  36,C  35,C  34)    179.7884         0.022990   
    224. D(H  37,C  36,C  35,C   1)     -1.5161         0.022990   
    225. D(C  40,C  38,C  36,H  37)    178.4085         0.025954   
    226. D(C  40,C  38,C  36,C  35)      1.4085         0.025954   
    227. D(H  39,C  38,C  36,H  37)     -0.3580         0.025954   
    228. D(H  39,C  38,C  36,C  35)   -177.3581         0.025954   
    229. D(C  42,C  40,C  38,H  39)    179.5553         0.026860   
    230. D(C  42,C  40,C  38,C  36)      0.7996         0.026860   
    231. D(H  41,C  40,C  38,H  39)      0.0359         0.026860   
    232. D(H  41,C  40,C  38,C  36)   -178.7197         0.026860   
    233. D(H  43,C  42,C  40,H  41)     -0.0663         0.026013   
    234. D(H  43,C  42,C  40,C  38)   -179.5841         0.026013   
    235. D(C  34,C  42,C  40,H  41)    178.4330         0.026013   
    236. D(C  34,C  42,C  40,C  38)     -1.0848         0.026013   
    237. D(H  43,C  42,C  34,C  35)    177.6665         0.025085   
    238. D(H  43,C  42,C  34,H  33)      0.9055         0.025085   
    239. D(C  40,C  42,C  34,C  35)     -0.8350         0.025085   
    240. D(C  40,C  42,C  34,H  33)   -177.5959         0.025085   
    -----------------------------------------------------------------

Number of atoms                         .... 45
Number of degrees of freedom            .... 240


         *************************************************************
         *                GEOMETRY OPTIMIZATION CYCLE   1            *
         *************************************************************
---------------------------------
CARTESIAN COORDINATES (ANGSTROEM)
---------------------------------
  O    -1.606960    1.011300   -2.586470
  C    -1.353120    0.415490   -1.315410
  C    -0.838300    2.794340    0.513760
  C    -2.080860    2.721500    2.972040
  C    -4.414900    1.126460    3.411890
  C     0.916370    4.393160    1.313770
  C    -0.452490    4.358660    3.962070
  C    -0.317040    3.571370    1.559320
  C    -0.948930    3.537540    2.806280
  O    -3.853890   -0.267640   -2.459800
  O    -7.319370   -1.154730    0.260290
  C    -4.308470   -0.227550   -1.313980
  C    -6.189010   -0.666920    0.188830
  C    -1.887730    1.877100    0.695220
  C    -2.575840    1.889900    1.943810
  N    -3.741100    1.073530    2.111400
  C    -3.583730    0.414600   -0.169890
  C    -4.312700    0.444230    0.974970
  N    -5.536010   -0.747290   -1.018390
  N    -5.556240   -0.063140    1.191590
  N    -2.296170    0.972990   -0.320710
  H    -6.060800   -1.163720   -1.764910
  H    -5.217200    0.389380    3.523280
  H    -3.714570    0.897380    4.223540
  H    -4.857860    2.115250    3.578630
  H    -0.398140    2.904810   -0.471230
  H    -2.579130    2.744880    3.934990
  H     0.697420    5.458900    1.423270
  H     1.705370    4.106630    2.017620
  H     1.314810    4.232340    0.306100
  H     0.553730    4.038390    4.250400
  H    -0.435400    5.420130    3.695390
  H    -1.097830    4.252320    4.840420
  H     0.040850   -0.664110    0.813400
  C     0.692690   -0.125230    0.127160
  C     0.151810    0.480180   -1.020130
  C     1.032290    1.173450   -1.877380
  H     0.647470    1.651320   -2.776890
  C     2.385180    1.316440   -1.567580
  H     3.029320    1.892260   -2.225760
  C     2.892820    0.743060   -0.406550
  H     3.941090    0.870910   -0.153170
  C     2.051220    0.014020    0.433760
  H     2.446240   -0.428190    1.344180
  H    -1.547820   -0.661630   -1.424480

----------------------------
CARTESIAN COORDINATES (A.U.)
----------------------------
  NO LB    ZA    FRAG    MASS        X           Y           Z
   0 O   8.0000    0    15.999   -3.036714    1.911080   -4.887720
   1 C   6.0000    0    12.011   -2.557026    0.785162   -2.485765
   2 C   6.0000    0    12.011   -1.584157    5.280537    0.970866
   3 C   6.0000    0    12.011   -3.932256    5.142890    5.616342
   4 C   6.0000    0    12.011   -8.342952    2.128701    6.447538
   5 C   6.0000    0    12.011    1.731688    8.301869    2.482666
   6 C   6.0000    0    12.011   -0.855082    8.236674    7.487227
   7 C   6.0000    0    12.011   -0.599119    6.748911    2.946688
   8 C   6.0000    0    12.011   -1.793218    6.684982    5.303101
   9 O   8.0000    0    15.999   -7.282797   -0.505766   -4.648348
  10 O   8.0000    0    15.999  -13.831605   -2.182123    0.491877
  11 C   6.0000    0    12.011   -8.141828   -0.430007   -2.483062
  12 C   6.0000    0    12.011  -11.695534   -1.260296    0.356837
  13 C   6.0000    0    12.011   -3.567293    3.547205    1.313775
  14 C   6.0000    0    12.011   -4.867632    3.571393    3.673269
  15 N   7.0000    0    14.007   -7.069654    2.028678    3.989968
  16 C   6.0000    0    12.011   -6.772268    0.783480   -0.321046
  17 C   6.0000    0    12.011   -8.149822    0.839473    1.842426
  18 N   7.0000    0    14.007  -10.461543   -1.412173   -1.924478
  19 N   7.0000    0    14.007  -10.499772   -0.119317    2.251779
  20 N   7.0000    0    14.007   -4.339132    1.838685   -0.606054
  21 H   1.0000    0     1.008  -11.453252   -2.199112   -3.335197
  22 H   1.0000    0     1.008   -9.859079    0.735822    6.658034
  23 H   1.0000    0     1.008   -7.019520    1.695802    7.981334
  24 H   1.0000    0     1.008   -9.180025    3.997243    6.762631
  25 H   1.0000    0     1.008   -0.752376    5.489295   -0.890496
  26 H   1.0000    0     1.008   -4.873849    5.187071    7.436053
  27 H   1.0000    0     1.008    1.317933   10.315826    2.689591
  28 H   1.0000    0     1.008    3.222682    7.760406    3.812749
  29 H   1.0000    0     1.008    2.484631    7.997964    0.578445
  30 H   1.0000    0     1.008    1.046398    7.631451    8.032092
  31 H   1.0000    0     1.008   -0.822787   10.242561    6.983275
  32 H   1.0000    0     1.008   -2.074598    8.035720    9.147068
  33 H   1.0000    0     1.008    0.077195   -1.254986    1.537103
  34 C   6.0000    0    12.011    1.308994   -0.236650    0.240298
  35 C   6.0000    0    12.011    0.286879    0.907409   -1.927766
  36 C   6.0000    0    12.011    1.950745    2.217499   -3.547734
  37 H   1.0000    0     1.008    1.223541    3.120543   -5.247562
  38 C   6.0000    0    12.011    4.507337    2.487711   -2.962297
  39 H   1.0000    0     1.008    5.724585    3.575853   -4.206077
  40 C   6.0000    0    12.011    5.466638    1.404180   -0.768268
  41 H   1.0000    0     1.008    7.447581    1.645781   -0.289449
  42 C   6.0000    0    12.011    3.876244    0.026494    0.819688
  43 H   1.0000    0     1.008    4.622724   -0.809162    2.540132
  44 H   1.0000    0     1.008   -2.924956   -1.250300   -2.691877

      -----------------------------------------------------------      
     |                   =====================                   |     
     |                           x T B                           |     
     |                   =====================                   |     
     |                         S. Grimme                         |     
     |          Mulliken Center for Theoretical Chemistry        |     
     |                    University of Bonn                     |     
      -----------------------------------------------------------      

   * xtb version 6.7.1 (edcfbbe) compiled by 'albert@albert-system' on 2024-07-22

   xtb is free software: you can redistribute it and/or modify it under
   the terms of the GNU Lesser General Public License as published by
   the Free Software Foundation, either version 3 of the License, or
   (at your option) any later version.
   
   xtb is distributed in the hope that it will be useful,
   but WITHOUT ANY WARRANTY; without even the implied warranty of
   MERCHANTABILITY or FITNESS FOR A PARTICULAR PURPOSE.  See the
   GNU Lesser General Public License for more details.
   
   Cite this work as:
   * C. Bannwarth, E. Caldeweyher, S. Ehlert, A. Hansen, P. Pracht,
     J. Seibert, S. Spicher, S. Grimme, WIREs Comput. Mol. Sci., 2020, 11,
     e01493. DOI: 10.1002/wcms.1493
   
   for GFN2-xTB:
   * C. Bannwarth, S. Ehlert and S. Grimme., J. Chem. Theory Comput., 2019,
     15, 1652-1671. DOI: 10.1021/acs.jctc.8b01176
   for GFN1-xTB:
   * S. Grimme, C. Bannwarth, P. Shushkov, J. Chem. Theory Comput., 2017,
     13, 1989-2009. DOI: 10.1021/acs.jctc.7b00118
   for GFN0-xTB:
   * P. Pracht, E. Caldeweyher, S. Ehlert, S. Grimme, ChemRxiv, 2019, preprint.
     DOI: 10.26434/chemrxiv.8326202.v1
   for GFN-FF:
   * S. Spicher and S. Grimme, Angew. Chem. Int. Ed., 2020, 59, 15665-15673.
     DOI: 10.1002/anie.202004239
   
   for ALPB and GBSA implicit solvation:
   * S. Ehlert, M. Stahn, S. Spicher, S. Grimme, J. Chem. Theory Comput.,
     2021, 17, 4250-4261. DOI: 10.1021/acs.jctc.1c00471
   
   for ddCOSMO and CPCM-X implicit solvation:
   * M. Stahn, S. Ehlert, S. Grimme, J. Phys. Chem. A,
     2023, XX, XXXX-XXXX. DOI: 10.1021/acs.jpca.3c04382
   
   for DFT-D4:
   * E. Caldeweyher, C. Bannwarth and S. Grimme, J. Chem. Phys., 2017,
     147, 034112. DOI: 10.1063/1.4993215
   * E. Caldeweyher, S. Ehlert, A. Hansen, H. Neugebauer, S. Spicher,
     C. Bannwarth and S. Grimme, J. Chem. Phys., 2019, 150, 154122.
     DOI: 10.1063/1.5090222
   * E. Caldeweyher, J.-M. Mewes, S. Ehlert and S. Grimme, Phys. Chem. Chem. Phys.
     2020, 22, 8499-8512. DOI: 10.1039/D0CP00502A
   
   for sTDA-xTB:
   * S. Grimme and C. Bannwarth, J. Chem. Phys., 2016, 145, 054103.
     DOI: 10.1063/1.4959605
   
   in the mass-spec context:
   * V. Asgeirsson, C. Bauer and S. Grimme, Chem. Sci., 2017, 8, 4879.
     DOI: 10.1039/c7sc00601b
   * J. Koopman and S. Grimme, ACS Omega 2019, 4, 12, 15120-15133.
     DOI: 10.1021/acsomega.9b02011
   
   for metadynamics refer to:
   * S. Grimme, J. Chem. Theory Comput., 2019, 155, 2847-2862
     DOI: 10.1021/acs.jctc.9b00143
   
   for SPH calculations refer to:
   * S. Spicher and S. Grimme, J. Chem. Theory Comput., 2021, 17, 1701-1714
     DOI: 10.1021/acs.jctc.0c01306
   
   for ONIOM refer to:
   * C. Plett, A. Katbashev, S. Ehlert, S. Grimme, M. Bursch,
     Phys. Chem. Chem. Phys., 2023, 25, 17860-17868. DOI: 10.1039/D3CP02178E
   
   for DIPRO refer to:
   * J. Kohn, N. Gildemeister, S. Grimme, D. Fazzi, A. Hansen,
     J. Chem. Phys., 2023, just accepted.
   
   for PTB refer to:
   * S. Grimme, M. Mueller, A. Hansen, J. Chem. Phys., 2023, 158, 124111.
     DOI: 10.1063/5.0137838
   
   with help from (in alphabetical order)
   P. Atkinson, C. Bannwarth, F. Bohle, G. Brandenburg, E. Caldeweyher
   M. Checinski, S. Dohm, S. Ehlert, S. Ehrlich, I. Gerasimov, C. Hölzer
   A. Katbashev, J. Kohn, J. Koopman, C. Lavigne, S. Lehtola, F. März, M. Müller,
   F. Musil, H. Neugebauer, J. Pisarek, C. Plett, P. Pracht, F. Pultar,
   J. Seibert, P. Shushkov, S. Spicher, M. Stahn, M. Steiner, T. Strunk,
   J. Stückrath, T. Rose, and J. Unsleber
   
 * started run on 2025/11/13 at 17:50:26.468     
   ID    Z sym.   atoms
    1    8 O      1, 10, 11
    2    6 C      2-9, 12-15, 17, 18, 35-37, 39, 41, 43
    3    7 N      16, 19-21
    4    1 H      22-34, 38, 40, 42, 44, 45

           -------------------------------------------------
          |                Calculation Setup                |
           -------------------------------------------------

          program call               : /home/mchrnwsk/orca_6_1_0/otool_xtb /home/mchrnwsk/prometheozyme/ingredients/lmo-mandalate/optimised/adduct_right_d/opt_XTB.xyz --grad -c -2 -u 0 -P 16 --namespace /home/mchrnwsk/prometheozyme/ingredients/lmo-mandalate/optimised/adduct_right_d/opt --input /home/mchrnwsk/prometheozyme/ingredients/lmo-mandalate/optimised/adduct_right_d/opt_XTB.input.tmp --acc 0.200000
          calculation namespace      : /home/mchrnwsk/prometheozyme/ingredients/lmo-mandalate/optimised/adduct_right_d/opt
          coordinate file            : /home/mchrnwsk/prometheozyme/ingredients/lmo-mandalate/optimised/adduct_right_d/opt_XTB.xyz
          omp threads                :                    16


           -------------------------------------------------
          |                 G F N 2 - x T B                 |
           -------------------------------------------------

        Reference                      10.1021/acs.jctc.8b01176
      * Hamiltonian:
        H0-scaling (s, p, d)           1.850000    2.230000    2.230000
        zeta-weighting                 0.500000
      * Dispersion:
        s8                             2.700000
        a1                             0.520000
        a2                             5.000000
        s9                             5.000000
      * Repulsion:
        kExp                           1.500000    1.000000
        rExp                           1.000000
      * Coulomb:
        alpha                          2.000000
        third order                    shell-resolved
        anisotropic                    true
        a3                             3.000000
        a5                             4.000000
        cn-shift                       1.200000
        cn-exp                         4.000000
        max-rad                        5.000000


          ...................................................
          :                      SETUP                      :
          :.................................................:
          :  # basis functions                 126          :
          :  # atomic orbitals                 126          :
          :  # shells                           72          :
          :  # electrons                       138          :
          :  max. iterations                   250          :
          :  Hamiltonian                  GFN2-xTB          :
          :  restarted?                      false          :
          :  GBSA solvation                  false          :
          :  PC potential                    false          :
          :  electronic temp.          300.0000000     K    :
          :  accuracy                    0.2000000          :
          :  -> integral cutoff          0.3198970E+02      :
          :  -> integral neglect         0.2000000E-08      :
          :  -> SCF convergence          0.2000000E-06 Eh   :
          :  -> wf. convergence          0.2000000E-04 e    :
          :  Broyden damping             0.4000000          :
          :  net charge                         -2          :
          :  unpaired electrons                  0          :
          ...................................................

 iter      E             dE          RMSdq      gap      omega  full diag
   1    -77.0095714 -0.770096E+02  0.438E+00    2.11       0.0  T
   2    -77.2455787 -0.236007E+00  0.237E+00    0.77       1.0  T
   3    -77.1262708  0.119308E+00  0.165E+00    0.10       1.0  T
   4    -77.2482832 -0.122012E+00  0.120E+00    1.97       1.0  T
   5    -77.2655865 -0.173033E-01  0.551E-01    1.24       1.0  T
   6    -77.2703617 -0.477516E-02  0.384E-01    1.05       1.0  T
   7    -77.2729379 -0.257624E-02  0.299E-01    0.77       1.0  T
   8    -77.2761566 -0.321872E-02  0.936E-02    0.34       1.0  T
   9    -77.2763053 -0.148671E-03  0.314E-02    0.32       1.0  T
  10    -77.2762661  0.391789E-04  0.308E-02    0.35       1.0  T
  11    -77.2762158  0.502755E-04  0.408E-02    0.29       1.0  T
  12    -77.2763192 -0.103376E-03  0.102E-02    0.33       1.5  T
  13    -77.2763187  0.492502E-06  0.104E-02    0.31       1.4  T
  14    -77.2763258 -0.705353E-05  0.102E-03    0.32      14.6  T
  15    -77.2763258  0.376953E-08  0.976E-04    0.32      15.3  T
  16    -77.2763258 -0.495687E-07  0.409E-04    0.32      36.4  T
  17    -77.2763258 -0.981090E-08  0.904E-05    0.32     164.9  T
  18    -77.2763258 -0.445510E-09  0.293E-05    0.32     508.8  T

   *** convergence criteria satisfied after 18 iterations ***

         #    Occupation            Energy/Eh            Energy/eV
      -------------------------------------------------------------
         1        2.0000           -0.4325517             -11.7703
       ...           ...                  ...                  ...
        63        2.0000           -0.1399834              -3.8091
        64        2.0000           -0.1256353              -3.4187
        65        2.0000           -0.1218906              -3.3168
        66        2.0000           -0.1168299              -3.1791
        67        2.0000           -0.0667108              -1.8153
        68        2.0000           -0.0313696              -0.8536
        69        1.9957           -0.0228651              -0.6222 (HOMO)
        70        0.0041           -0.0111540              -0.3035 (LUMO)
        71        0.0003           -0.0085198              -0.2318
        72                          0.0022557               0.0614
        73                          0.0118274               0.3218
        74                          0.0429213               1.1679
       ...                                ...                  ...
       126                          0.9434035              25.6713
      -------------------------------------------------------------
                  HL-Gap            0.0117111 Eh            0.3187 eV
             Fermi-level           -0.0170384 Eh           -0.4636 eV

 SCC (total)                   0 d,  0 h,  0 min,  0.062 sec
 SCC setup                      ...        0 min,  0.000 sec (  0.743%)
 Dispersion                     ...        0 min,  0.001 sec (  2.136%)
 classical contributions        ...        0 min,  0.000 sec (  0.084%)
 integral evaluation            ...        0 min,  0.003 sec (  5.487%)
 iterations                     ...        0 min,  0.052 sec ( 84.079%)
 molecular gradient             ...        0 min,  0.004 sec (  6.985%)
 printout                       ...        0 min,  0.000 sec (  0.417%)

         :::::::::::::::::::::::::::::::::::::::::::::::::::::
         ::                     SUMMARY                     ::
         :::::::::::::::::::::::::::::::::::::::::::::::::::::
         :: total energy             -76.267828458334 Eh    ::
         :: gradient norm              0.161296683553 Eh/a0 ::
         :: HOMO-LUMO gap              0.318674294922 eV    ::
         ::.................................................::
         :: SCC energy               -77.275524942940 Eh    ::
         :: -> isotropic ES            0.462435210520 Eh    ::
         :: -> anisotropic ES          0.027006876306 Eh    ::
         :: -> anisotropic XC          0.021741092747 Eh    ::
         :: -> dispersion             -0.060199649348 Eh    ::
         :: repulsion energy           1.007696484605 Eh    ::
         :: add. restraining           0.000000000000 Eh    ::
         :: total charge              -2.000000000000 e     ::
         :::::::::::::::::::::::::::::::::::::::::::::::::::::


Property printout bound to 'properties.out'

           -------------------------------------------------
          | TOTAL ENERGY              -76.267828458334 Eh   |
          | GRADIENT NORM               0.161296683553 Eh/α |
          | HOMO-LUMO GAP               0.318674294922 eV   |
           -------------------------------------------------

------------------------------------------------------------------------
 * finished run on 2025/11/13 at 17:50:26.550     
------------------------------------------------------------------------
 total:
 * wall-time:     0 d,  0 h,  0 min,  0.081 sec
 *  cpu-time:     0 d,  0 h,  0 min,  1.211 sec
 * ratio c/w:    14.957 speedup
 SCF:
 * wall-time:     0 d,  0 h,  0 min,  0.062 sec
 *  cpu-time:     0 d,  0 h,  0 min,  0.990 sec
 * ratio c/w:    15.905 speedup


-------------------------   --------------------
FINAL SINGLE POINT ENERGY       -76.267828458330
-------------------------   --------------------


-------------
DIPOLE MOMENT
-------------
                                X             Y             Z
Total Dipole Moment    :     11.66200      -2.29300       2.81200
                        -----------------------------------------
Magnitude (a.u.)       :     12.21341
Magnitude (Debye)      :     31.04403


------------------
CARTESIAN GRADIENT
------------------

   1   O   :   -0.024766514    0.018950300   -0.053913769
   2   C   :    0.007238147   -0.037035194    0.089730443
   3   C   :    0.000802988    0.002776896   -0.002945494
   4   C   :    0.009159173    0.010229252    0.015593552
   5   C   :   -0.000744470    0.003946378    0.008921734
   6   C   :   -0.001943704   -0.000327064    0.002065682
   7   C   :    0.000782692   -0.000154783   -0.002475289
   8   C   :    0.010356997    0.009041851    0.000873305
   9   C   :    0.000446089    0.005178050    0.009117025
  10   O   :    0.021494955    0.013103762   -0.009376442
  11   O   :    0.010782119    0.004678836   -0.003773854
  12   C   :   -0.046821510   -0.025856256    0.006130611
  13   C   :   -0.001753100   -0.006458382   -0.017354716
  14   C   :    0.010617338    0.015021585    0.017794268
  15   C   :    0.008238494    0.000074878   -0.007760327
  16   N   :   -0.014933395   -0.010133326   -0.017113164
  17   C   :    0.016902879    0.021147937    0.029373712
  18   C   :    0.008530094   -0.003300840   -0.024956391
  19   N   :   -0.004916557   -0.000237967    0.002905081
  20   N   :   -0.010527724   -0.004865788    0.001550118
  21   N   :   -0.014372030   -0.017479641   -0.038925750
  22   H   :    0.001922671    0.003032157    0.008252749
  23   H   :   -0.002745253   -0.001181133    0.014324959
  24   H   :   -0.003949886   -0.003318893    0.002715559
  25   H   :   -0.001240302   -0.000934573   -0.000951109
  26   H   :    0.002031259    0.005032357   -0.003994363
  27   H   :   -0.001470733    0.000324828    0.002539074
  28   H   :   -0.002456111   -0.000028308   -0.001988707
  29   H   :    0.001926399   -0.003319571   -0.000002797
  30   H   :    0.004382837    0.000885801   -0.003407964
  31   H   :    0.000028033   -0.003485054    0.000430481
  32   H   :   -0.003175333    0.001309679   -0.001018578
  33   H   :   -0.000743621    0.001127098    0.003178193
  34   H   :   -0.002271280   -0.002190766    0.003235183
  35   C   :   -0.007638524   -0.006870065    0.005634425
  36   C   :   -0.002443489   -0.011551159   -0.018390150
  37   C   :   -0.003394352    0.001271716   -0.004757826
  38   H   :    0.004825788    0.004743903   -0.006560685
  39   C   :    0.012653144    0.007202455   -0.003447298
  40   H   :   -0.000015969    0.001214079   -0.001078854
  41   C   :    0.002536847    0.000627408    0.000887816
  42   H   :    0.000109161    0.000551601   -0.000703917
  43   C   :    0.010432451    0.000431905    0.006589135
  44   H   :    0.000112885   -0.000722446    0.000909655
  45   H   :    0.006010417    0.007546494   -0.007855317

Difference to translation invariance:
           :   -0.0000000000    0.0000000000   -0.0000000000

Difference to rotation invariance:
           :    0.0000000360    0.0000000542   -0.0000000634

Norm of the Cartesian gradient     ...    0.1612966836
RMS gradient                       ...    0.0138822082
MAX gradient                       ...    0.0897304430
------------------------------------------------------------------------------
                         ORCA GEOMETRY RELAXATION STEP
------------------------------------------------------------------------------

Reading the OPT-File                    .... done
Getting information on internals        .... done
Copying old internal coords+grads       .... done
Making the new internal coordinates     .... (2022 redundants) done
Validating the new internal coordinates .... (2022 redundants) done
Calculating the B-matrix                .... done
Calculating the G,G- and P matrices     .... done
Transforming gradient to internals      .... done
Projecting the internal gradient        .... done
Number of atoms                         ....  45
Number of internal coordinates          .... 240
Current Energy                          ....   -76.267828458 Eh
Current gradient norm                   ....     0.161296684 Eh/bohr
Maximum allowed component of the step   ....  0.300
Current trust radius                    ....  0.300
Evaluating the initial hessian          ....  (Almloef) done
Projecting the Hessian                  .... done
Forming the augmented Hessian           .... done
Diagonalizing the augmented Hessian     .... done
Last element of RFO vector              ....  0.908313391
Lowest eigenvalues of augmented Hessian:
 -0.046563071  0.010093041  0.010370343  0.012672167  0.012853268
Length of the computed step             ....  0.460513204
Warning: the length of the step is outside the trust region - taking restricted step instead
The input lambda is                     ....     0.009087
   iter:   5  x=   -0.014657  g=   83.879797 f(x)=     0.920781
   iter:  10  x=   -0.127829  g=    0.691394 f(x)=     0.005180
The output lambda is                    ....    -0.128260 (14 iterations)
The final length of the internal step   ....  0.300000000
Converting the step to Cartesian space:
 Initial RMS(Int)=    0.0193649167
Transforming coordinates:
 Iter   0:  RMS(Cart)=    0.1911349014 RMS(Int)=    0.4053428866
 Iter   5:  RMS(Cart)=    0.0000002720 RMS(Int)=    0.0000001314
done
Storing new coordinates                 .... done

                                .--------------------.
          ----------------------|Geometry convergence|-------------------------
          Item                value                   Tolerance       Converged
          ---------------------------------------------------------------------
          RMS gradient        0.0086235549            0.0001000000      NO
          MAX gradient        0.0603594116            0.0003000000      NO
          RMS step            0.0193649167            0.0020000000      NO
          MAX step            0.0977381553            0.0040000000      NO
          -------------------------------------------------------------------------
          ........................................................
          Max(Bonds)      0.0517      Max(Angles)    3.56
          Max(Dihed)        5.25      Max(Improp)    0.00
          ---------------------------------------------------------------------

The optimization has not yet converged - more geometry cycles are needed


    ---------------------------------------------------------------------------
                         Redundant Internal Coordinates
                            (Angstroem and degrees)

        Definition                    Value    dE/dq     Step     New-Value
    ----------------------------------------------------------------------------
     1. B(C   1,O   0)                1.4265  0.060359 -0.0517    1.3748   
     2. B(C   7,C   5)                1.5023  0.000977 -0.0007    1.5016   
     3. B(C   7,C   2)                1.4031  0.009518 -0.0077    1.3954   
     4. B(C   8,C   7)                1.3983  0.013351 -0.0091    1.3892   
     5. B(C   8,C   3)                1.4052  0.007426 -0.0047    1.4005   
     6. B(C   8,C   6)                1.5022 -0.001596  0.0016    1.5037   
     7. B(C  11,O   9)                1.2334  0.016208 -0.0076    1.2257   
     8. B(C  12,O  10)                1.2332 -0.011952  0.0056    1.2388   
     9. B(C  13,C   2)                1.4055  0.013344 -0.0107    1.3949   
    10. B(C  14,C   3)                1.4120  0.025782 -0.0191    1.3929   
    11. B(C  14,C  13)                1.4257  0.010348 -0.0098    1.4159   
    12. B(N  15,C  14)                1.4326  0.036434 -0.0319    1.4007   
    13. B(N  15,C   4)                1.4656  0.026130 -0.0250    1.4406   
    14. B(C  16,C  11)                1.4988  0.015954 -0.0150    1.4839   
    15. B(C  17,N  15)                1.4192  0.014577 -0.0112    1.4080   
    16. B(C  17,C  16)                1.3576 -0.017506  0.0121    1.3697   
    17. B(N  18,C  12)                1.3749 -0.018789  0.0138    1.3886   
    18. B(N  18,C  11)                1.3654 -0.011442  0.0084    1.3739   
    19. B(N  19,C  17)                1.3604  0.015565 -0.0112    1.3492   
    20. B(N  19,C  12)                1.3306  0.008489 -0.0058    1.3248   
    21. B(N  20,C  16)                1.4115 -0.005910  0.0052    1.4167   
    22. B(N  20,C  13)                1.4200  0.033829 -0.0306    1.3894   
    23. B(N  20,C   1)                1.4797 -0.002013 -0.0001    1.4796   
    24. B(H  21,N  18)                1.0031 -0.008407  0.0078    1.0108   
    25. B(H  22,C   4)                1.0952  0.004263 -0.0047    1.0905   
    26. B(H  23,C   4)                1.0962  0.000181 -0.0002    1.0960   
    27. B(H  24,C   4)                1.0962 -0.000486  0.0005    1.0968   
    28. B(H  25,C   2)                1.0845  0.004965 -0.0053    1.0792   
    29. B(H  26,C   3)                1.0845  0.002937 -0.0031    1.0813   
    30. B(H  27,C   5)                1.0935  0.000265 -0.0003    1.0932   
    31. B(H  28,C   5)                1.0955  0.002254 -0.0025    1.0930   
    32. B(H  29,C   5)                1.0955  0.006458 -0.0058    1.0897   
    33. B(H  30,C   6)                1.0946  0.001159 -0.0013    1.0933   
    34. B(H  31,C   6)                1.0946  0.001469 -0.0016    1.0930   
    35. B(H  32,C   6)                1.0951  0.002878 -0.0032    1.0920   
    36. B(C  34,H  33)                1.0891  0.004482 -0.0048    1.0843   
    37. B(C  35,C  34)                1.4055  0.012763 -0.0099    1.3956   
    38. B(C  35,C   1)                1.5350  0.008661 -0.0109    1.5241   
    39. B(C  36,C  35)                1.4109  0.019607 -0.0151    1.3958   
    40. B(H  37,C  36)                1.0888  0.005796 -0.0063    1.0826   
    41. B(C  38,C  36)                1.3953  0.009816 -0.0079    1.3874   
    42. B(H  39,C  38)                1.0861  0.001288 -0.0014    1.0848   
    43. B(C  40,C  38)                1.3908  0.003592 -0.0030    1.3878   
    44. B(H  41,H  29)                4.2904  0.004262 -0.0058    4.2846   
    45. B(H  41,C  40)                1.0860 -0.002013  0.0008    1.0868   
    46. B(C  42,C  40)                1.3950  0.007841 -0.0053    1.3897   
    47. B(C  42,C  34)                1.3996  0.014784 -0.0108    1.3888   
    48. B(H  43,C  42)                1.0865  0.001097 -0.0012    1.0853   
    49. B(H  44,C   1)                1.1000 -0.007675  0.0085    1.1085   
    50. A(O   0,C   1,N  20)          109.16 -0.017258    2.81    111.97   
    51. A(C  35,C   1,H  44)          103.53 -0.002623    0.51    104.04   
    52. A(N  20,C   1,C  35)          118.66  0.015862   -3.56    115.10   
    53. A(N  20,C   1,H  44)          108.83  0.006433   -0.86    107.97   
    54. A(O   0,C   1,C  35)          109.16  0.001961   -0.05    109.11   
    55. A(O   0,C   1,H  44)          106.81 -0.005267    1.47    108.27   
    56. A(C   7,C   2,H  25)          118.01 -0.003989    0.46    118.47   
    57. A(C   7,C   2,C  13)          122.86  0.001211   -0.12    122.74   
    58. A(C  13,C   2,H  25)          119.13  0.002756   -0.34    118.79   
    59. A(C   8,C   3,H  26)          117.54 -0.000555    0.09    117.63   
    60. A(C  14,C   3,H  26)          119.88 -0.000409    0.07    119.96   
    61. A(C   8,C   3,C  14)          122.58  0.000963   -0.17    122.41   
    62. A(N  15,C   4,H  24)          110.69 -0.003823    0.42    111.11   
    63. A(H  22,C   4,H  24)          107.19 -0.005635    0.65    107.84   
    64. A(H  22,C   4,H  23)          104.60 -0.011656    1.61    106.21   
    65. A(H  23,C   4,H  24)          109.51 -0.000606    0.10    109.61   
    66. A(N  15,C   4,H  22)          113.75  0.018554   -2.39    111.36   
    67. A(N  15,C   4,H  23)          110.84  0.002287   -0.27    110.56   
    68. A(C   7,C   5,H  29)          111.63  0.004295   -0.55    111.08   
    69. A(H  27,C   5,H  28)          109.56  0.003326   -0.51    109.05   
    70. A(C   7,C   5,H  28)          110.07 -0.002823    0.27    110.35   
    71. A(C   7,C   5,H  27)          110.63 -0.001536    0.26    110.89   
    72. A(H  27,C   5,H  29)          107.94  0.001306    0.01    107.95   
    73. A(H  28,C   5,H  29)          106.90 -0.004526    0.51    107.41   
    74. A(H  30,C   6,H  31)          109.48  0.003758   -0.58    108.90   
    75. A(C   8,C   6,H  30)          110.27 -0.002772    0.32    110.60   
    76. A(C   8,C   6,H  32)          111.67  0.003018   -0.34    111.33   
    77. A(H  30,C   6,H  32)          107.58 -0.000765    0.13    107.71   
    78. A(H  31,C   6,H  32)          107.38 -0.000948    0.19    107.57   
    79. A(C   8,C   6,H  31)          110.35 -0.002127    0.26    110.61   
    80. A(C   2,C   7,C   8)          118.90 -0.000516    0.05    118.95   
    81. A(C   5,C   7,C   8)          122.00  0.005420   -0.41    121.59   
    82. A(C   2,C   7,C   5)          119.09 -0.004943    0.37    119.46   
    83. A(C   6,C   8,C   7)          121.57  0.001287   -0.15    121.42   
    84. A(C   3,C   8,C   7)          118.90  0.000877   -0.08    118.82   
    85. A(C   3,C   8,C   6)          119.53 -0.002155    0.23    119.76   
    86. A(O   9,C  11,C  16)          123.01 -0.029713    2.95    125.96   
    87. A(C  16,C  11,N  18)          115.63  0.010353   -1.00    114.63   
    88. A(O   9,C  11,N  18)          121.34  0.019309   -1.92    119.42   
    89. A(N  18,C  12,N  19)          117.54  0.003694   -0.41    117.14   
    90. A(O  10,C  12,N  19)          124.87  0.001598   -0.13    124.74   
    91. A(O  10,C  12,N  18)          117.59 -0.005298    0.54    118.12   
    92. A(C  14,C  13,N  20)          119.57 -0.011821    1.30    120.87   
    93. A(C   2,C  13,N  20)          122.54  0.009552   -1.23    121.31   
    94. A(C   2,C  13,C  14)          117.88  0.002316   -0.07    117.80   
    95. A(C  13,C  14,N  15)          119.33 -0.000424   -0.18    119.15   
    96. A(C   3,C  14,N  15)          122.38  0.005462   -0.28    122.11   
    97. A(C   3,C  14,C  13)          118.28 -0.005037    0.46    118.74   
    98. A(C   4,N  15,C  17)          122.78  0.012104   -1.36    121.42   
    99. A(C   4,N  15,C  14)          117.20 -0.011080    1.24    118.44   
   100. A(C  14,N  15,C  17)          119.12 -0.000723    0.06    119.18   
   101. A(C  11,C  16,C  17)          113.17 -0.004078    0.46    113.63   
   102. A(C  17,C  16,N  20)          124.84  0.020746   -2.19    122.65   
   103. A(C  11,C  16,N  20)          121.94 -0.016759    1.75    123.69   
   104. A(C  16,C  17,N  19)          128.10 -0.006017    0.55    128.65   
   105. A(N  15,C  17,N  19)          113.96  0.013119   -1.43    112.52   
   106. A(N  15,C  17,C  16)          117.95 -0.007102    0.88    118.83   
   107. A(C  11,N  18,C  12)          126.50 -0.005382    0.64    127.14   
   108. A(C  12,N  18,H  21)          115.42 -0.000427    0.05    115.47   
   109. A(C  11,N  18,H  21)          117.86  0.005759   -0.68    117.18   
   110. A(C  12,N  19,C  17)          118.94  0.001418   -0.24    118.70   
   111. A(C   1,N  20,C  13)          122.51  0.007138   -2.04    120.47   
   112. A(C  13,N  20,C  16)          115.96 -0.000413    0.18    116.14   
   113. A(C   1,N  20,C  16)          120.27 -0.006310    1.67    121.95   
   114. A(H  33,C  34,C  35)          119.81  0.002307   -0.18    119.63   
   115. A(C  35,C  34,C  42)          120.63 -0.003376    0.24    120.87   
   116. A(H  33,C  34,C  42)          119.48  0.000898   -0.02    119.46   
   117. A(C   1,C  35,C  34)          121.08  0.001794    0.07    121.14   
   118. A(C  34,C  35,C  36)          117.87 -0.001658    0.23    118.10   
   119. A(C   1,C  35,C  36)          121.04 -0.000242   -0.27    120.77   
   120. A(H  37,C  36,C  38)          118.76 -0.008430    1.01    119.77   
   121. A(C  35,C  36,C  38)          121.37  0.001215   -0.14    121.23   
   122. A(C  35,C  36,H  37)          119.80  0.007059   -0.83    118.97   
   123. A(H  39,C  38,C  40)          120.53  0.001856   -0.20    120.33   
   124. A(C  36,C  38,C  40)          119.80 -0.001908    0.19    119.99   
   125. A(C  36,C  38,H  39)          119.66  0.000022    0.02    119.67   
   126. A(H  41,C  40,C  42)          120.22 -0.000176    0.02    120.24   
   127. A(C  38,C  40,C  42)          119.87  0.004385   -0.34    119.53   
   128. A(C  38,C  40,H  41)          119.90 -0.004214    0.33    120.23   
   129. A(C  40,C  42,H  43)          119.88 -0.000224    0.03    119.90   
   130. A(C  34,C  42,H  43)          119.73 -0.000986    0.11    119.85   
   131. A(C  34,C  42,C  40)          120.37  0.001175   -0.13    120.24   
   132. D(C   2,C   7,C   5,H  28)   -121.98  0.000820   -0.10   -122.07   
   133. D(C   8,C   7,C   2,H  25)    174.10 -0.001038    0.46    174.56   
   134. D(C   8,C   7,C   2,C  13)     -6.63 -0.003117    0.69     -5.94   
   135. D(C   2,C   7,C   5,H  29)     -3.43 -0.003949    0.37     -3.06   
   136. D(C   5,C   7,C   2,C  13)    172.22 -0.005225    1.00    173.22   
   137. D(C   2,C   7,C   5,H  27)    116.79 -0.000474    0.20    116.99   
   138. D(C   8,C   7,C   5,H  27)    -64.40 -0.002727    0.52    -63.87   
   139. D(C   5,C   7,C   2,H  25)     -7.05 -0.003146    0.77     -6.28   
   140. D(C   8,C   7,C   5,H  28)     56.83 -0.001433    0.23     57.06   
   141. D(C   3,C   8,C   6,H  31)   -122.06  0.000233   -0.12   -122.18   
   142. D(C   7,C   8,C   3,C  14)      2.66  0.000123    0.05      2.71   
   143. D(C   3,C   8,C   6,H  30)    116.85 -0.001259    0.23    117.08   
   144. D(C   7,C   8,C   3,H  26)   -177.40 -0.000963    0.02   -177.38   
   145. D(C   3,C   8,C   7,C   5)   -178.51  0.004469   -0.74   -179.25   
   146. D(C   7,C   8,C   6,H  31)     57.44  0.001379   -0.23     57.21   
   147. D(C   6,C   8,C   7,C   2)   -179.20  0.001045   -0.29   -179.50   
   148. D(C   6,C   8,C   3,C  14)   -177.82  0.001241   -0.06   -177.89   
   149. D(C   6,C   8,C   7,C   5)      1.98  0.003345   -0.63      1.36   
   150. D(C   7,C   8,C   6,H  30)    -63.64 -0.000113    0.11    -63.53   
   151. D(C   3,C   8,C   7,C   2)      0.30  0.002169   -0.41     -0.11   
   152. D(C   3,C   8,C   6,H  32)     -2.70 -0.000412    0.08     -2.62   
   153. D(C   6,C   8,C   3,H  26)      2.12  0.000155   -0.10      2.02   
   154. D(C  14,C  13,C   2,C   7)      9.68  0.001861   -0.57      9.11   
   155. D(N  20,C  13,C   2,H  25)      7.54  0.001778   -0.56      6.98   
   156. D(N  20,C  13,C   2,C   7)   -171.72  0.003927   -0.79   -172.51   
   157. D(C  14,C  13,C   2,H  25)   -171.06 -0.000288   -0.34   -171.40   
   158. D(N  15,C  14,C   3,H  26)      0.94 -0.000717    0.01      0.95   
   159. D(N  15,C  14,C   3,C   8)   -179.12 -0.001827   -0.03   -179.15   
   160. D(C  13,C  14,C   3,H  26)   -179.47 -0.000586    0.11   -179.36   
   161. D(C   3,C  14,C  13,C   2)     -6.39  0.000874    0.16     -6.23   
   162. D(C  13,C  14,C   3,C   8)      0.47 -0.001696    0.07      0.54   
   163. D(N  15,C  14,C  13,N  20)     -5.43 -0.001279    0.50     -4.92   
   164. D(N  15,C  14,C  13,C   2)    173.21  0.001027    0.25    173.47   
   165. D(C   3,C  14,C  13,N  20)    174.97 -0.001432    0.41    175.38   
   166. D(C  17,N  15,C  14,C   3)    169.24  0.002958   -0.33    168.91   
   167. D(C   4,N  15,C  14,C  13)   -179.77 -0.000217    0.04   -179.73   
   168. D(C   4,N  15,C  14,C   3)     -0.19 -0.000103    0.15     -0.04   
   169. D(C  17,N  15,C   4,H  23)    135.97 -0.000249   -0.04    135.92   
   170. D(C  14,N  15,C   4,H  24)     66.70 -0.000473   -0.13     66.57   
   171. D(C  14,N  15,C   4,H  23)    -55.02  0.001345   -0.37    -55.38   
   172. D(C  17,N  15,C   4,H  22)     18.44  0.000814   -0.33     18.11   
   173. D(C  17,N  15,C  14,C  13)    -10.34  0.002844   -0.44    -10.77   
   174. D(C  14,N  15,C   4,H  22)   -172.54  0.002407   -0.65   -173.20   
   175. D(N  20,C  16,C  11,N  18)    178.86  0.000630   -0.35    178.51   
   176. D(N  20,C  16,C  11,O   9)     -2.65 -0.001213    0.52     -2.13   
   177. D(C  17,C  16,C  11,N  18)     -3.70 -0.000906    0.24     -3.46   
   178. D(C  17,C  16,C  11,O   9)    174.80 -0.002749    1.11    175.90   
   179. D(N  19,C  17,C  16,N  20)    179.59 -0.001687    0.33    179.92   
   180. D(N  15,C  17,C  16,N  20)     -0.45 -0.000890   -0.05     -0.49   
   181. D(N  15,C  17,C  16,C  11)   -177.81  0.001846   -0.77   -178.58   
   182. D(N  19,C  17,C  16,C  11)      2.24  0.001049   -0.40      1.84   
   183. D(N  19,C  17,N  15,C  14)   -166.74  0.000386   -0.23   -166.97   
   184. D(N  19,C  17,N  15,C   4)      2.08  0.000963   -0.44      1.64   
   185. D(C  16,C  17,N  15,C  14)     13.30 -0.000294    0.09     13.39   
   186. D(C  16,C  17,N  15,C   4)   -177.89  0.000283   -0.12   -178.01   
   187. D(H  21,N  18,C  12,O  10)      2.90 -0.000073    0.01      2.91   
   188. D(C  11,N  18,C  12,N  19)     -2.35  0.000944   -0.29     -2.64   
   189. D(C  11,N  18,C  12,O  10)    177.36 -0.000357    0.17    177.53   
   190. D(H  21,N  18,C  11,C  16)    178.43 -0.000932    0.32    178.75   
   191. D(H  21,N  18,C  11,O   9)     -0.09  0.001679   -0.61     -0.71   
   192. D(C  12,N  18,C  11,C  16)      4.09 -0.000320    0.11      4.20   
   193. D(H  21,N  18,C  12,N  19)   -176.81  0.001228   -0.46   -177.27   
   194. D(C  12,N  18,C  11,O   9)   -174.43  0.002291   -0.82   -175.25   
   195. D(C  12,N  19,C  17,C  16)     -0.51 -0.001018    0.29     -0.22   
   196. D(C  12,N  19,C  17,N  15)    179.53 -0.001781    0.65    180.17   
   197. D(C  17,N  19,C  12,N  18)      0.30 -0.000164    0.08      0.38   
   198. D(C  17,N  19,C  12,O  10)   -179.39  0.001263   -0.42   -179.81   
   199. D(C  13,N  20,C  16,C  17)    -14.95 -0.000251    0.34    -14.61   
   200. D(C   1,N  20,C  16,C  17)    152.61  0.002745   -0.85    151.76   
   201. D(C   1,N  20,C  16,C  11)    -30.26  0.000215   -0.11    -30.37   
   202. D(C  16,N  20,C  13,C  14)     17.37 -0.001411   -0.26     17.11   
   203. D(C  16,N  20,C  13,C   2)   -161.21 -0.003708   -0.02   -161.23   
   204. D(C   1,N  20,C  13,C  14)   -149.89 -0.002621    0.45   -149.44   
   205. D(C   1,N  20,C  13,C   2)     31.54 -0.004917    0.69     32.23   
   206. D(C  16,N  20,C   1,C  35)   -148.86 -0.016773    4.85   -144.02   
   207. D(C  16,N  20,C   1,O   0)     85.27 -0.016623    5.25     90.52   
   208. D(C  13,N  20,C   1,H  44)    135.76 -0.002310    1.49    137.25   
   209. D(C  13,N  20,C  16,C  11)    162.18 -0.002780    1.08    163.27   
   210. D(C  13,N  20,C   1,C  35)     17.86 -0.014689    3.90     21.76   
   211. D(C  13,N  20,C   1,O   0)   -108.01 -0.014540    4.31   -103.71   
   212. D(C  36,C  35,C  34,C  42)      2.94  0.002764   -0.53      2.41   
   213. D(C  36,C  35,C  34,H  33)    179.69 -0.000721    0.21    179.90   
   214. D(C   1,C  35,C  34,C  42)   -175.76  0.007980   -1.81   -177.57   
   215. D(C   1,C  35,C  34,H  33)      0.99  0.004495   -1.08     -0.08   
   216. D(C  36,C  35,C   1,N  20)   -119.80  0.010573   -1.95   -121.75   
   217. D(C  36,C  35,C   1,O   0)      6.06  0.001188   -0.98      5.08   
   218. D(C  34,C  35,C   1,H  44)    -61.80 -0.010655    2.24    -59.56   
   219. D(C  34,C  35,C   1,N  20)     58.85  0.005174   -0.62     58.23   
   220. D(C  34,C  35,C   1,O   0)   -175.28 -0.004211    0.35   -174.93   
   221. D(C  38,C  36,C  35,C  34)     -3.24 -0.003061    0.61     -2.63   
   222. D(C  38,C  36,C  35,C   1)    175.45 -0.008247    1.90    177.36   
   223. D(H  37,C  36,C  35,C  34)    179.79  0.000668   -0.17    179.62   
   224. D(H  37,C  36,C  35,C   1)     -1.52 -0.004518    1.12     -0.40   
   225. D(C  40,C  38,C  36,H  37)    178.41 -0.002392    0.47    178.88   
   226. D(C  40,C  38,C  36,C  35)      1.41  0.000844   -0.25      1.16   
   227. D(H  39,C  38,C  36,H  37)     -0.36 -0.000822    0.21     -0.15   
   228. D(H  39,C  38,C  36,C  35)   -177.36  0.002414   -0.51   -177.87   
   229. D(C  42,C  40,C  38,H  39)    179.56  0.000035    0.06    179.61   
   230. D(C  42,C  40,C  38,C  36)      0.80  0.001642   -0.21      0.59   
   231. D(H  41,C  40,C  38,H  39)      0.04  0.000721   -0.05     -0.01   
   232. D(H  41,C  40,C  38,C  36)   -178.72  0.002328   -0.32   -179.04   
   233. D(H  43,C  42,C  40,H  41)     -0.07 -0.000942    0.12      0.06   
   234. D(H  43,C  42,C  40,C  38)   -179.58 -0.000234    0.01   -179.57   
   235. D(C  34,C  42,C  40,H  41)    178.43 -0.002525    0.39    178.83   
   236. D(C  34,C  42,C  40,C  38)     -1.08 -0.001817    0.28     -0.80   
   237. D(H  43,C  42,C  34,C  35)    177.67 -0.002138    0.37    178.04   
   238. D(H  43,C  42,C  34,H  33)      0.91  0.001289   -0.36      0.55   
   239. D(C  40,C  42,C  34,C  35)     -0.83 -0.000569    0.11     -0.73   
   240. D(C  40,C  42,C  34,H  33)   -177.60  0.002858   -0.62   -178.22   
    ----------------------------------------------------------------------------

Geometry step timings:
Preparation and reading OPT file:      0.000 s ( 0.125 %)
Internal coordinates            :      0.000 s ( 0.169 %)
B/P matrices and projection     :      0.006 s (25.097 %)
Hessian update/contruction      :      0.003 s (11.197 %)
Making the step                 :      0.012 s (53.128 %)
Converting the step to Cartesian:      0.001 s ( 2.799 %)
Storing new data                :      0.000 s ( 0.273 %)
Checking convergence            :      0.000 s ( 0.311 %)
Final printing                  :      0.002 s ( 6.892 %)
Total time                      :      0.023 s

Time for energy+gradient        :      0.089 s
Time for complete geometry iter :      0.113 s

         *************************************************************
         *                GEOMETRY OPTIMIZATION CYCLE   2            *
         *************************************************************
---------------------------------
CARTESIAN COORDINATES (ANGSTROEM)
---------------------------------
  O    -1.487085    1.170483   -2.607896
  C    -1.351496    0.522048   -1.403207
  C    -0.870195    2.785622    0.409383
  C    -2.012425    2.660070    2.896234
  C    -4.287951    1.047461    3.372058
  C     0.884095    4.400920    1.166430
  C    -0.360304    4.294866    3.851168
  C    -0.322019    3.549287    1.440227
  C    -0.898584    3.487019    2.702751
  O    -4.008756   -0.274018   -2.507620
  O    -7.284662   -1.182676    0.433810
  C    -4.360161   -0.206278   -1.335314
  C    -6.162839   -0.676552    0.292231
  C    -1.899322    1.867338    0.616179
  C    -2.529858    1.855561    1.883595
  N    -3.654334    1.043220    2.078300
[...]
  H    -2.074464    0.310649   -1.867834

----------------------------
CARTESIAN COORDINATES (A.U.)
----------------------------
  NO LB    ZA    FRAG    MASS        X           Y           Z
   0 O   8.0000    0    15.999   -3.253990    4.375240   -3.325952
   1 C   6.0000    0    12.011   -2.829854    2.130666   -2.551862
   2 C   6.0000    0    12.011   -0.888448    4.708350    2.078467
   3 C   6.0000    0    12.011   -4.522212    6.275418    5.424594
   4 C   6.0000    0    12.011   -9.497151    4.217954    5.243648
   5 C   6.0000    0    12.011    2.264822    7.817720    3.735320
   6 C   6.0000    0    12.011   -1.606836    9.489886    7.372149
   7 C   6.0000    0    12.011   -0.320423    6.631678    3.774970
   8 C   6.0000    0    12.011   -2.135663    7.424427    5.489444
   9 O   8.0000    0    15.999   -4.736935   -3.544609   -1.510206
  10 O   8.0000    0    15.999  -12.631478   -3.367582    1.700560
  11 C   6.0000    0    12.011   -6.288963   -2.213044   -0.360904
  12 C   6.0000    0    12.011  -10.616835   -2.195042    1.508118
  13 C   6.0000    0    12.011   -3.252772    3.540665    1.981845
  14 C   6.0000    0    12.011   -5.114026    4.401165    3.706746
  15 N   7.0000    0    14.007   -7.532502    3.363888    3.581459
  16 C   6.0000    0    12.011   -5.979112    0.254848    0.676087
  17 C   6.0000    0    12.011   -7.901358    1.132556    2.227162
  18 N   7.0000    0    14.007   -8.675823   -3.239025    0.067853
  19 N   7.0000    0    14.007  -10.125262   -0.003311    2.639070
  20 N   7.0000    0    14.007   -3.725862    1.647995    0.296853
  21 H   1.0000    0     1.008   -8.981616   -4.971806   -0.684345
  22 H   1.0000    0     1.008  -11.159365    3.090870    4.792620
  23 H   1.0000    0     1.008   -9.004697    3.928173    7.240024
  24 H   1.0000    0     1.008   -9.880925    6.228515    4.935140
  25 H   1.0000    0     1.008    0.527571    4.108545    0.746239
  26 H   1.0000    0     1.008   -5.939550    6.951506    6.733915
  27 H   1.0000    0     1.008    2.142976    9.843954    3.360183
  28 H   1.0000    0     1.008    3.224725    7.574814    5.549051
  29 H   1.0000    0     1.008    3.415847    6.954728    2.267254
  30 H   1.0000    0     1.008   -0.042718    8.980596    8.623823
  31 H   1.0000    0     1.008   -1.089567   11.251086    6.424337
  32 H   1.0000    0     1.008   -3.266537    9.851817    8.536435
  33 H   1.0000    0     1.008   -0.751402   -2.357400   -0.926948
  34 C   6.0000    0    12.011    0.670771   -1.134785   -1.728937
  35 C   6.0000    0    12.011   -0.064109    1.224637   -2.618457
  36 C   6.0000    0    12.011    1.736724    2.767599   -3.749029
  37 H   1.0000    0     1.008    1.101351    4.589362   -4.426872
  38 C   6.0000    0    12.011    4.227858    2.005761   -3.951919
  39 H   1.0000    0     1.008    5.621314    3.233992   -4.827447
  40 C   6.0000    0    12.011    4.954330   -0.334382   -3.029409
  41 H   1.0000    0     1.008    6.909974   -0.942286   -3.176805
  42 C   6.0000    0    12.011    3.161836   -1.899529   -1.926795
  43 H   1.0000    0     1.008    3.732009   -3.738191   -1.218134
  44 H   1.0000    0     1.008   -3.920168    0.587042   -3.529695

      -----------------------------------------------------------      
     |                   =====================                   |     
     |                           x T B                           |     
     |                   =====================                   |     
     |                         S. Grimme                         |     
     |          Mulliken Center for Theoretical Chemistry        |     
     |                    University of Bonn                     |     
      -----------------------------------------------------------      

   * xtb version 6.7.1 (edcfbbe) compiled by 'albert@albert-system' on 2024-07-22

   xtb is free software: you can redistribute it and/or modify it under
   the terms of the GNU Lesser General Public License as published by
   the Free Software Foundation, either version 3 of the License, or
   (at your option) any later version.
   
   xtb is distributed in the hope that it will be useful,
   but WITHOUT ANY WARRANTY; without even the implied warranty of
   MERCHANTABILITY or FITNESS FOR A PARTICULAR PURPOSE.  See the
   GNU Lesser General Public License for more details.
   
   Cite this work as:
   * C. Bannwarth, E. Caldeweyher, S. Ehlert, A. Hansen, P. Pracht,
     J. Seibert, S. Spicher, S. Grimme, WIREs Comput. Mol. Sci., 2020, 11,
     e01493. DOI: 10.1002/wcms.1493
   
   for GFN2-xTB:
   * C. Bannwarth, S. Ehlert and S. Grimme., J. Chem. Theory Comput., 2019,
     15, 1652-1671. DOI: 10.1021/acs.jctc.8b01176
   for GFN1-xTB:
   * S. Grimme, C. Bannwarth, P. Shushkov, J. Chem. Theory Comput., 2017,
     13, 1989-2009. DOI: 10.1021/acs.jctc.7b00118
   for GFN0-xTB:
   * P. Pracht, E. Caldeweyher, S. Ehlert, S. Grimme, ChemRxiv, 2019, preprint.
     DOI: 10.26434/chemrxiv.8326202.v1
   for GFN-FF:
   * S. Spicher and S. Grimme, Angew. Chem. Int. Ed., 2020, 59, 15665-15673.
     DOI: 10.1002/anie.202004239
   
   for ALPB and GBSA implicit solvation:
   * S. Ehlert, M. Stahn, S. Spicher, S. Grimme, J. Chem. Theory Comput.,
     2021, 17, 4250-4261. DOI: 10.1021/acs.jctc.1c00471
   
   for ddCOSMO and CPCM-X implicit solvation:
   * M. Stahn, S. Ehlert, S. Grimme, J. Phys. Chem. A,
     2023, XX, XXXX-XXXX. DOI: 10.1021/acs.jpca.3c04382
   
   for DFT-D4:
   * E. Caldeweyher, C. Bannwarth and S. Grimme, J. Chem. Phys., 2017,
     147, 034112. DOI: 10.1063/1.4993215
   * E. Caldeweyher, S. Ehlert, A. Hansen, H. Neugebauer, S. Spicher,
     C. Bannwarth and S. Grimme, J. Chem. Phys., 2019, 150, 154122.
     DOI: 10.1063/1.5090222
   * E. Caldeweyher, J.-M. Mewes, S. Ehlert and S. Grimme, Phys. Chem. Chem. Phys.
     2020, 22, 8499-8512. DOI: 10.1039/D0CP00502A
   
   for sTDA-xTB:
   * S. Grimme and C. Bannwarth, J. Chem. Phys., 2016, 145, 054103.
     DOI: 10.1063/1.4959605
   
   in the mass-spec context:
   * V. Asgeirsson, C. Bauer and S. Grimme, Chem. Sci., 2017, 8, 4879.
     DOI: 10.1039/c7sc00601b
   * J. Koopman and S. Grimme, ACS Omega 2019, 4, 12, 15120-15133.
     DOI: 10.1021/acsomega.9b02011
   
   for metadynamics refer to:
   * S. Grimme, J. Chem. Theory Comput., 2019, 155, 2847-2862
     DOI: 10.1021/acs.jctc.9b00143
   
   for SPH calculations refer to:
   * S. Spicher and S. Grimme, J. Chem. Theory Comput., 2021, 17, 1701-1714
     DOI: 10.1021/acs.jctc.0c01306
   
   for ONIOM refer to:
   * C. Plett, A. Katbashev, S. Ehlert, S. Grimme, M. Bursch,
     Phys. Chem. Chem. Phys., 2023, 25, 17860-17868. DOI: 10.1039/D3CP02178E
   
   for DIPRO refer to:
   * J. Kohn, N. Gildemeister, S. Grimme, D. Fazzi, A. Hansen,
     J. Chem. Phys., 2023, just accepted.
   
   for PTB refer to:
   * S. Grimme, M. Mueller, A. Hansen, J. Chem. Phys., 2023, 158, 124111.
     DOI: 10.1063/5.0137838
   
   with help from (in alphabetical order)
   P. Atkinson, C. Bannwarth, F. Bohle, G. Brandenburg, E. Caldeweyher
   M. Checinski, S. Dohm, S. Ehlert, S. Ehrlich, I. Gerasimov, C. Hölzer
   A. Katbashev, J. Kohn, J. Koopman, C. Lavigne, S. Lehtola, F. März, M. Müller,
   F. Musil, H. Neugebauer, J. Pisarek, C. Plett, P. Pracht, F. Pultar,
   J. Seibert, P. Shushkov, S. Spicher, M. Stahn, M. Steiner, T. Strunk,
   J. Stückrath, T. Rose, and J. Unsleber
   
 * started run on 2025/11/13 at 17:50:29.739     
   ID    Z sym.   atoms
    1    8 O      1, 10, 11
    2    6 C      2-9, 12-15, 17, 18, 35-37, 39, 41, 43
    3    7 N      16, 19-21
    4    1 H      22-34, 38, 40, 42, 44, 45

           -------------------------------------------------
          |                Calculation Setup                |
           -------------------------------------------------

          program call               : /home/mchrnwsk/orca_6_1_0/otool_xtb /home/mchrnwsk/prometheozyme/ingredients/lmo-mandalate/optimised/adduct_right_d/opt_XTB.xyz --grad -c -2 -u 0 -P 16 --namespace /home/mchrnwsk/prometheozyme/ingredients/lmo-mandalate/optimised/adduct_right_d/opt --input /home/mchrnwsk/prometheozyme/ingredients/lmo-mandalate/optimised/adduct_right_d/opt_XTB.input.tmp --acc 0.200000
          calculation namespace      : /home/mchrnwsk/prometheozyme/ingredients/lmo-mandalate/optimised/adduct_right_d/opt
          coordinate file            : /home/mchrnwsk/prometheozyme/ingredients/lmo-mandalate/optimised/adduct_right_d/opt_XTB.xyz
          omp threads                :                    16


           -------------------------------------------------
          |                 G F N 2 - x T B                 |
           -------------------------------------------------

        Reference                      10.1021/acs.jctc.8b01176
      * Hamiltonian:
        H0-scaling (s, p, d)           1.850000    2.230000    2.230000
        zeta-weighting                 0.500000
      * Dispersion:
        s8                             2.700000
        a1                             0.520000
        a2                             5.000000
        s9                             5.000000
      * Repulsion:
        kExp                           1.500000    1.000000
        rExp                           1.000000
      * Coulomb:
        alpha                          2.000000
        third order                    shell-resolved
        anisotropic                    true
        a3                             3.000000
        a5                             4.000000
        cn-shift                       1.200000
        cn-exp                         4.000000
        max-rad                        5.000000

q/qsh data taken from xtbrestart
CAMM data taken from xtbrestart

          ...................................................
          :                      SETUP                      :
          :.................................................:
          :  # basis functions                 126          :
          :  # atomic orbitals                 126          :
          :  # shells                           72          :
          :  # electrons                       138          :
          :  max. iterations                   250          :
          :  Hamiltonian                  GFN2-xTB          :
          :  restarted?                       true          :
          :  GBSA solvation                  false          :
          :  PC potential                    false          :
          :  electronic temp.          300.0000000     K    :
          :  accuracy                    0.2000000          :
          :  -> integral cutoff          0.3198970E+02      :
          :  -> integral neglect         0.2000000E-08      :
          :  -> SCF convergence          0.2000000E-06 Eh   :
          :  -> wf. convergence          0.2000000E-04 e    :
          :  Broyden damping             0.4000000          :
          :  net charge                         -2          :
          :  unpaired electrons                  0          :
          ...................................................

 iter      E             dE          RMSdq      gap      omega  full diag
   1    -77.3952245 -0.773952E+02  0.744E-03    1.56       0.0  T
   2    -77.3952245 -0.562269E-07  0.433E-03    1.56       3.4  T
   3    -77.3952243  0.224292E-06  0.215E-03    1.56       6.9  T
   4    -77.3952246 -0.258654E-06  0.368E-04    1.56      40.5  T
   5    -77.3952246 -0.712924E-08  0.101E-04    1.56     147.3  T
   6    -77.3952246 -0.212097E-09  0.538E-05    1.56     277.2  T

   *** convergence criteria satisfied after 6 iterations ***

         #    Occupation            Energy/Eh            Energy/eV
      -------------------------------------------------------------
         1        2.0000           -0.4329618             -11.7815
       ...           ...                  ...                  ...
        63        2.0000           -0.1459743              -3.9722
        64        2.0000           -0.1332973              -3.6272
        65        2.0000           -0.1254032              -3.4124
        66        2.0000           -0.1250224              -3.4020
        67        2.0000           -0.0850756              -2.3150
        68        2.0000           -0.0627263              -1.7069
        69        2.0000           -0.0598039              -1.6273 (HOMO)
        70                         -0.0025172              -0.0685 (LUMO)
        71                         -0.0010295              -0.0280
        72                          0.0087107               0.2370
        73                          0.0243917               0.6637
        74                          0.0416008               1.1320
       ...                                ...                  ...
       126                          0.9222968              25.0970
      -------------------------------------------------------------
                  HL-Gap            0.0572867 Eh            1.5588 eV
             Fermi-level           -0.0312348 Eh           -0.8499 eV

 SCC (total)                   0 d,  0 h,  0 min,  0.030 sec
 SCC setup                      ...        0 min,  0.000 sec (  1.247%)
 Dispersion                     ...        0 min,  0.001 sec (  2.891%)
 classical contributions        ...        0 min,  0.000 sec (  0.184%)
 integral evaluation            ...        0 min,  0.003 sec ( 10.542%)
 iterations                     ...        0 min,  0.022 sec ( 70.848%)
 molecular gradient             ...        0 min,  0.004 sec ( 13.313%)
 printout                       ...        0 min,  0.000 sec (  0.863%)

         :::::::::::::::::::::::::::::::::::::::::::::::::::::
         ::                     SUMMARY                     ::
         :::::::::::::::::::::::::::::::::::::::::::::::::::::
         :: total energy             -76.330635657509 Eh    ::
         :: gradient norm              0.000283396811 Eh/a0 ::
         :: HOMO-LUMO gap              1.558849809593 eV    ::
         ::.................................................::
         :: SCC energy               -77.394712086994 Eh    ::
         :: -> isotropic ES            0.447912402672 Eh    ::
         :: -> anisotropic ES          0.016600464485 Eh    ::
         :: -> anisotropic XC          0.021143630544 Eh    ::
         :: -> dispersion             -0.060399923319 Eh    ::
         :: repulsion energy           1.064076429485 Eh    ::
         :: add. restraining           0.000000000000 Eh    ::
         :: total charge              -2.000000000000 e     ::
         :::::::::::::::::::::::::::::::::::::::::::::::::::::


Property printout bound to 'properties.out'

           -------------------------------------------------
          | TOTAL ENERGY              -76.330635657509 Eh   |
          | GRADIENT NORM               0.000283396811 Eh/α |
          | HOMO-LUMO GAP               1.558849809593 eV   |
           -------------------------------------------------

------------------------------------------------------------------------
 * finished run on 2025/11/13 at 17:50:29.785     
------------------------------------------------------------------------
 total:
 * wall-time:     0 d,  0 h,  0 min,  0.045 sec
 *  cpu-time:     0 d,  0 h,  0 min,  0.665 sec
 * ratio c/w:    14.746 speedup
 SCF:
 * wall-time:     0 d,  0 h,  0 min,  0.031 sec
 *  cpu-time:     0 d,  0 h,  0 min,  0.484 sec
 * ratio c/w:    15.786 speedup


-------------------------   --------------------
FINAL SINGLE POINT ENERGY       -76.330635657510
-------------------------   --------------------


-------------
DIPOLE MOMENT
-------------
                                X             Y             Z
Total Dipole Moment    :     10.51500      -2.10500       0.41900
                        -----------------------------------------
Magnitude (a.u.)       :     10.73181
Magnitude (Debye)      :     27.27810

                                *** OPTIMIZATION RUN DONE ***


--------------------------------
SUGGESTED CITATIONS FOR THIS RUN
--------------------------------

Below you find a list of papers that are relevant to this ORCA run
We neither can nor want to force you to cite these papers, but we appreciate if you do
You receive ORCA, which is the product of decades of hard work by many enthusiastic individuals, for free
The only thing we kindly ask in return is that you cite our papers,
We deeply appreciate it, if you show your appreciation for ORCA by not just citing the generic ORCA reference.

Please note that relegating all ORCA citations to the supporting information does *not* help us.
SI sections are not indexed - citations you put there will not count into any citation statistics
But we need these citations in order to attract the funding resources that allow us to do what we are doing

Therefore, if you are a happy ORCA user, please consider citing a few of the papers listed below in the main body of your paper

In addition to the list printed below, the program has created the file /home/mchrnwsk/prometheozyme/ingredients/lmo-mandalate/optimised/adduct_right_d/opt.bibtex that contains the list in bibtex format
You can import this file easily into all common literature databanks and citation aid programs


List of essential papers. We consider these as the minimum necessary citations

  1. Bannwarth, C.; Ehlert, S.; Grimme, S.
     GFN2-xTB—An Accurate and Broadly Parametrized Self-Consistent Tight-Binding Quantum Chemical Method with Multipole Electrostatics and Density-Dependent Dispersion Contributions
     J. Chem. Theory Comput. 2019 15(3), 1652-1671
     doi.org/10.1021/acs.jctc.8b01176
  2. Neese, F.
     Software update: the ORCA program system, version 6.0
     WIRES Comput. Molec. Sci. 2025 15(1), e70019
     doi.org/10.1002/wcms.7019

List of papers to cite with high priority. The work reported in these papers was absolutely
necessary for this run to complete.
Our perspective: the developers of density functionals and basis sets usually get cited in chemistry papers
Good! But without the algorithms to do something with them, the functionals or basis sets would not do anything.
Hence, in our opinion, the algorithm design and method developments papers are equally worthy of getting cited

  1. Bannwarth, C.; Caldeweyher, E.; Ehlert, S.; Hansen, A.; Pracht, P.; Seibert, J.; Spicher, S.; Grimme, S.
     Extended tight-binding quantum chemistry methods
     WIRES Comput. Molec. Sci. 2020 11(2), e1493
     doi.org/10.1002/wcms.1493

List of suggested additional citations. These are papers that are important in the 'surrounding' of 
of this run, or papers that preceded the highly important papers. If you like your results we are grateful for a citation.

  1. Neese, F.
     The ORCA program system
     WIRES Comput. Molec. Sci. 2012 2(1), 73-78
     doi.org/10.1002/wcms.81
  2. Neese, F.
     Software update: the ORCA program system, version 4.0
     WIRES Comput. Molec. Sci. 2018 8(1), 1-6
     doi.org/10.1002/wcms.1327
  3. Neese, F.; Wennmohs, F.; Becker, U.; Riplinger, C.
     The ORCA quantum chemistry program package
     J. Chem. Phys. 2020 152(22), 224108
     doi.org/10.1063/5.0004608
  4. Neese, F.
     Software update: The ORCA program system—Version 5.0
     WIRES Comput. Molec. Sci. 2022 12(1), e1606
     doi.org/10.1002/wcms.1606

List of optional additional citations

  1. Neese, F.
     Approximate second-order SCF convergence for spin unrestricted wavefunctions
     Chem. Phys. Lett. 2000 325(1-3), 93-98
     doi.org/10.1016/s0009-2614(00)00662-x

Timings for individual modules:

Sum of individual times          ...        3.110 sec (=   0.052 min)
Geometry relaxation              ...        0.626 sec (=   0.010 min)  20.1 %
XTB module                       ...        2.484 sec (=   0.041 min)  79.9 %
                             ****ORCA TERMINATED NORMALLY****
TOTAL RUN TIME: 0 days 0 hours 0 minutes 4 seconds 30 msec
